LAMMPS (23 Jun 2022 - Update 1)
OMP_NUM_THREADS environment is not set. Defaulting to 1 thread. (src/comm.cpp:98)
  using 1 OpenMP thread(s) per MPI task
Loaded 1 plugins from /opt/deepmd-kit/lib/deepmd_lmp
variable taskid equal 2
variable TempHi equal 1500
variable Press equal 0
variable rate equal round((${TempHi}-300)/(5)*4000) # units of K/ps
variable rate equal round((1500-300)/(5)*4000) 

units           metal
boundary        p p p
atom_style      atomic

neighbor        1.0 bin

read_data	ZIF4.data
Reading data file ...
  orthogonal box = (0 0 0) to (30.8462 30.8084 36.8758)
  1 by 1 by 1 MPI processor grid
  reading atoms ...
  2176 atoms
  read_data CPU = 0.053 seconds
pair_style      deepmd ../CHNZn.pb        # Using a compressed version of DP model for better efficiency
Summary of lammps deepmd module ...
  >>> Info of deepmd-kit:
  installed to:       /opt/deepmd-kit
  source:             v2.2.1
  source branch:       HEAD
  source commit:      3ac8c4c7
  source commit at:   2023-03-16 12:33:24 +0800
  surpport model ver.:1.1 
  build variant:      cuda
  build with tf inc:  /opt/deepmd-kit/include;/opt/deepmd-kit/include
  build with tf lib:  /opt/deepmd-kit/lib/libtensorflow_cc.so
  set tf intra_op_parallelism_threads: 0
  set tf inter_op_parallelism_threads: 0
  >>> Info of lammps module:
  use deepmd-kit at:  /opt/deepmd-kitpair_coeff      * *

thermo_style    custom step temp pe ke etotal press vol lx ly lz density spcpu
thermo          1000

timestep        0.00025

velocity	all create 10 ${taskid} dist gaussian units box
velocity	all create 10 2 dist gaussian units box

fix	1 all npt temp 10 10 $(100*dt) iso 0 0 $(1000*dt)
fix	1 all npt temp 10 10 0.025000000000000001388 iso 0 0 $(1000*dt)
fix	1 all npt temp 10 10 0.025000000000000001388 iso 0 0 0.25
fix     2 all temp/berendsen 10 10 $(100*dt)
fix     2 all temp/berendsen 10 10 0.025000000000000001388

run	30000

CITE-CITE-CITE-CITE-CITE-CITE-CITE-CITE-CITE-CITE-CITE-CITE-CITE

Your simulation uses code contributions which should be cited:

- USER-DEEPMD package:

@article{Wang_ComputPhysCommun_2018_v228_p178,
  author = {Wang, Han and Zhang, Linfeng and Han, Jiequn and E, Weinan},
  doi = {10.1016/j.cpc.2018.03.016},
  url = {https://doi.org/10.1016/j.cpc.2018.03.016},
  year = 2018,
  month = {jul},
  publisher = {Elsevier {BV}},
  volume = 228,
  journal = {Comput. Phys. Commun.},
  title = {{DeePMD-kit: A deep learning package for many-body potential energy representation and molecular dynamics}},
  pages = {178--184}
}

CITE-CITE-CITE-CITE-CITE-CITE-CITE-CITE-CITE-CITE-CITE-CITE-CITE

Generated 0 of 6 mixed pair_coeff terms from geometric mixing rule
Neighbor list info ...
  update every 1 steps, delay 10 steps, check yes
  max neighbors/atom: 2000, page size: 100000
  master list distance cutoff = 7
  ghost atom cutoff = 7
  binsize = 3.5, bins = 9 9 11
  1 neighbor lists, perpetual/occasional/extra = 1 0 0
  (1) pair deepmd, perpetual
      attributes: full, newton on
      pair build: full/bin/atomonly
      stencil: full/bin/3d
      bin: standard
Per MPI rank memory allocation (min/avg/max) = 3.609 | 3.609 | 3.609 Mbytes
   Step          Temp          PotEng         KinEng         TotEng         Press          Volume           Lx             Ly             Lz          Density         S/CPU     
         0   10            -480931.76      2.8114082     -480928.95      1721.2755      35043.886      30.8462        30.8084        36.8758        1.2103009      0            
      1000   9.8544337     -480934.56      2.7704835     -480931.79     -39.867259      33388.613      30.35268       30.315485      36.28581       1.2703028      122.58999    
      2000   9.7358486     -480934.99      2.7371444     -480932.25     -126.971        31776.934      29.856226      29.819639      35.692313      1.3347306      118.56038    
      3000   10.017647     -480934.84      2.8163695     -480932.02      168.60079      31904.956      29.896267      29.859631      35.740181      1.3293749      119.80113    
      4000   10.098163     -480934.69      2.8390059     -480931.86      101.75153      33036.15       30.245497      30.208433      36.157676      1.2838557      118.55777    
      5000   10.091489     -480935.29      2.8371294     -480932.45      94.114581      32097.596      29.956317      29.919607      35.811969      1.3213964      120.39713    
      6000   9.6117224     -480933.98      2.7022475     -480931.28      18.043157      30432.54       29.4291        29.393037      35.181695      1.393694       120.29918    
      7000   10.148791     -480935.63      2.8532394     -480932.78     -15.53889       30583.824      29.477785      29.441662      35.239897      1.3868         120.33774    
      8000   10.419902     -480933.94      2.9294598     -480931.01     -65.739241      31139.362      29.655197      29.618857      35.451988      1.362059       118.26558    
      9000   9.6102943     -480934.9       2.701846      -480932.19     -17.674278      30472.639      29.44202       29.405941      35.197141      1.39186        117.492      
     10000   10.221033     -480934.42      2.8735496     -480931.55     -37.584051      30036.206      29.300786      29.26488       35.028299      1.4120841      129.2908     
     11000   10.141197     -480934.49      2.8511043     -480931.64     -46.707303      30630.126      29.492653      29.456512      35.257671      1.3847037      131.46944    
     12000   10.258433     -480934.61      2.8840642     -480931.72      18.073762      30052.571      29.306107      29.270194      35.03466       1.4113151      131.1825     
     13000   9.9617492     -480934.42      2.8006543     -480931.62      32.468725      30277.505      29.379041      29.343039      35.121851      1.4008303      132.57642    
     14000   9.8417928     -480934.69      2.7669296     -480931.92      47.582732      30930.4        29.588714      29.552455      35.37251       1.3712609      132.45048    
     15000   9.8393516     -480934.68      2.7662433     -480931.91      1.5558753      31191.762      29.671822      29.635461      35.471863      1.3597708      113.56652    
     16000   10.220214     -480934.51      2.8733192     -480931.64     -16.457406      30880.206      29.5727        29.536461      35.353365      1.3734898      114.57039    
     17000   9.7287104     -480934.76      2.7351376     -480932.02     -1.0875323      31167.307      29.664066      29.627714      35.46259       1.3608378      112.70296    
     18000   10.049907     -480934.63      2.8254391     -480931.8      -26.647468      31695.066      29.830564      29.794009      35.661635      1.3381782      112.85758    
     19000   10.221786     -480934.5       2.8737613     -480931.63      36.592318      31692.067      29.829624      29.793069      35.66051       1.3383049      114.09879    
     20000   9.7417796     -480934.55      2.7388119     -480931.81      21.022993      31705.494      29.833835      29.797276      35.665545      1.3377381      114.623      
     21000   9.9718441     -480934.54      2.8034924     -480931.74     -12.160392      32300.703      30.01937       29.982583      35.887347      1.3130875      113.80679    
     22000   10.11825      -480934.64      2.8446532     -480931.79     -29.001846      32275.859      30.011672      29.974894      35.878144      1.3140982      111.99471    
     23000   9.9133074     -480934.7       2.7870353     -480931.92     -21.073719      31953.986      29.911574      29.874919      35.758479      1.3273351      113.79342    
     24000   9.9566996     -480934.58      2.7992347     -480931.78     -5.6456933      31600.573      29.80089       29.764371      35.62616       1.3421797      113.04639    
     25000   9.9892437     -480934.74      2.8083841     -480931.93      25.050299      31636.498      29.812179      29.775646      35.639655      1.3406556      112.31844    
     26000   10.012102     -480934.9       2.8148104     -480932.09      81.521432      31369.169      29.72797       29.69154       35.538986      1.3520807      114.52161    
     27000   10.211545     -480934.71      2.870882      -480931.84     -48.018742      31187.531      29.67048       29.634121      35.470259      1.3599553      114.16585    
     28000   10.032698     -480934.72      2.820601      -480931.9       162.84969      31223.899      29.682009      29.645636      35.484041      1.3583713      113.38243    
     29000   9.7005526     -480934.75      2.7272213     -480932.02     -413.98748      31202.333      29.675174      29.638809      35.47587       1.3593101      112.67544    
     30000   10.094055     -480934.75      2.837851      -480931.91      255.56022      30952.332      29.595706      29.559439      35.380868      1.3702892      113.48998    
Loop time of 254.331 on 1 procs for 30000 steps with 2176 atoms

Performance: 2.548 ns/day, 9.420 hours/ns, 117.956 timesteps/s
108.0% CPU use with 1 MPI tasks x 1 OpenMP threads

MPI task timing breakdown:
Section |  min time  |  avg time  |  max time  |%varavg| %total
---------------------------------------------------------------
Pair    | 249.03     | 249.03     | 249.03     |   0.0 | 97.92
Neigh   | 0.62291    | 0.62291    | 0.62291    |   0.0 |  0.24
Comm    | 0.98367    | 0.98367    | 0.98367    |   0.0 |  0.39
Output  | 0.0017783  | 0.0017783  | 0.0017783  |   0.0 |  0.00
Modify  | 3.1969     | 3.1969     | 3.1969     |   0.0 |  1.26
Other   |            | 0.4973     |            |       |  0.20

Nlocal:           2176 ave        2176 max        2176 min
Histogram: 1 0 0 0 0 0 0 0 0 0
Nghost:           4524 ave        4524 max        4524 min
Histogram: 1 0 0 0 0 0 0 0 0 0
Neighs:              0 ave           0 max           0 min
Histogram: 1 0 0 0 0 0 0 0 0 0
FullNghs:       211004 ave      211004 max      211004 min
Histogram: 1 0 0 0 0 0 0 0 0 0

Total # of neighbors = 211004
Ave neighs/atom = 96.96875
Neighbor list builds = 82
Dangerous builds = 0
unfix	1
unfix 	2

#### Heat to 300 K

fix     1 all npt temp 10 300 $(100*dt) iso 0 0 $(1000*dt)
fix     1 all npt temp 10 300 0.025000000000000001388 iso 0 0 $(1000*dt)
fix     1 all npt temp 10 300 0.025000000000000001388 iso 0 0 0.25
run 	5000
Generated 0 of 6 mixed pair_coeff terms from geometric mixing rule
Per MPI rank memory allocation (min/avg/max) = 3.992 | 3.992 | 3.992 Mbytes
   Step          Temp          PotEng         KinEng         TotEng         Press          Volume           Lx             Ly             Lz          Density         S/CPU     
     30000   10.094055     -480934.75      2.837851      -480931.91      255.56022      30952.332      29.595706      29.559439      35.380868      1.3702892      0            
     31000   46.046378     -480925.77      12.945516     -480912.83     -361.42904      30570.964      29.473653      29.437535      35.234957      1.3873834      112.71914    
     32000   124.91968     -480901.85      35.120021     -480866.73      863.82814      30752.184      29.531776      29.495587      35.304442      1.3792077      111.38098    
     33000   185.0507      -480884.81      52.025305     -480832.78     -164.21054      31917.744      29.900261      29.86362       35.744955      1.3288423      109.70993    
     34000   241.027       -480868.23      67.762526     -480800.46      772.54236      33962.173      30.525497      30.48809       36.492408      1.2488496      110.77539    
     35000   297.71486     -480847.34      83.699798     -480763.64     -327.43633      35878.464      31.089151      31.051053      37.166241      1.1821478      110.99611    
Loop time of 45.0014 on 1 procs for 5000 steps with 2176 atoms

Performance: 2.400 ns/day, 10.000 hours/ns, 111.108 timesteps/s
106.5% CPU use with 1 MPI tasks x 1 OpenMP threads

MPI task timing breakdown:
Section |  min time  |  avg time  |  max time  |%varavg| %total
---------------------------------------------------------------
Pair    | 43.625     | 43.625     | 43.625     |   0.0 | 96.94
Neigh   | 0.59744    | 0.59744    | 0.59744    |   0.0 |  1.33
Comm    | 0.1804     | 0.1804     | 0.1804     |   0.0 |  0.40
Output  | 0.00030996 | 0.00030996 | 0.00030996 |   0.0 |  0.00
Modify  | 0.51039    | 0.51039    | 0.51039    |   0.0 |  1.13
Other   |            | 0.08735    |            |       |  0.19

Nlocal:           2176 ave        2176 max        2176 min
Histogram: 1 0 0 0 0 0 0 0 0 0
Nghost:           4262 ave        4262 max        4262 min
Histogram: 1 0 0 0 0 0 0 0 0 0
Neighs:              0 ave           0 max           0 min
Histogram: 1 0 0 0 0 0 0 0 0 0
FullNghs:       184142 ave      184142 max      184142 min
Histogram: 1 0 0 0 0 0 0 0 0 0

Total # of neighbors = 184142
Ave neighs/atom = 84.624081
Neighbor list builds = 74
Dangerous builds = 0
unfix	1

#### Equilibrate structure

fix     1 all npt temp 300 300 $(100*dt) iso 0 0 $(1000*dt)
fix     1 all npt temp 300 300 0.025000000000000001388 iso 0 0 $(1000*dt)
fix     1 all npt temp 300 300 0.025000000000000001388 iso 0 0 0.25
run 	50000
Generated 0 of 6 mixed pair_coeff terms from geometric mixing rule
Per MPI rank memory allocation (min/avg/max) = 3.994 | 3.994 | 3.994 Mbytes
   Step          Temp          PotEng         KinEng         TotEng         Press          Volume           Lx             Ly             Lz          Density         S/CPU     
     35000   297.71486     -480847.34      83.699798     -480763.64     -327.43633      35878.464      31.089151      31.051053      37.166241      1.1821478      0            
     36000   298.65173     -480845.87      83.963191     -480761.91      396.81189      36387.346      31.235446      31.197169      37.341133      1.1656153      110.46245    
     37000   301.7339      -480847.51      84.829715     -480762.68      376.44579      35685.146      31.033213      30.995184      37.099369      1.1885519      111.85939    
     38000   302.4218      -480845.7       85.02311      -480760.68     -522.94648      34511.632      30.689236      30.651629      36.688154      1.2289667      111.57206    
     39000   308.46902     -480848.98      86.723233     -480762.26     -1184.5923      33179.887      30.289298      30.252181      36.210039      1.2782939      110.08542    
     40000   311.36733     -480851.66      87.538066     -480764.13      303.84957      32973.548      30.22638       30.18934       36.134822      1.2862931      110.07153    
     41000   301.32889     -480848.18      84.715851     -480763.47      470.64112      32808.724      30.175932      30.138954      36.074513      1.2927552      111.02135    
     42000   292.25374     -480847.87      82.164455     -480765.71     -337.50562      32945.687      30.217864      30.180834      36.124642      1.2873809      111.7585     
     43000   303.57527     -480847.61      85.347399     -480762.26      763.69932      32687.915      30.138849      30.101915      36.03018       1.297533       109.81203    
     44000   299.01361     -480845.85      84.064931     -480761.79     -1090.4241      32300.182      30.019208      29.982422      35.887154      1.3131086      111.68186    
     45000   291.29942     -480847.06      81.896158     -480765.17     -1259.6122      32230.108      29.997484      29.960724      35.861183      1.3159636      110.57022    
     46000   297.85448     -480847.74      83.739051     -480764        -1086.5056      31946.568      29.909259      29.872607      35.755712      1.3276433      110.18079    
     47000   296.31756     -480849.37      83.306959     -480766.07     -1282.4501      32225.699      29.996116      29.959358      35.859548      1.3161436      109.4776     
     48000   297.61917     -480846.89      83.672897     -480763.21     -1189.7178      32956.447      30.221154      30.18412       36.128574      1.2869606      110.26981    
     49000   304.95491     -480847.25      85.735273     -480761.52     -1083.4902      33663.25       30.435674      30.398377      36.385028      1.2599392      110.74014    
     50000   302.75571     -480846.51      85.116988     -480761.39      1162.3087      34012.881      30.540681      30.503256      36.510561      1.2469878      109.81369    
     51000   298.21577     -480850.04      83.840624     -480766.2       1780.3368      34286.689      30.622414      30.584889      36.60827       1.2370296      111.53166    
     52000   293.44767     -480845.91      82.500117     -480763.41      272.40313      34148.246      30.581143      30.543668      36.558932      1.2420447      111.58406    
     53000   288.29226     -480846.04      81.050722     -480764.99     -3.1269922      33913.782      30.510992      30.473602      36.475067      1.2506316      110.97081    
     54000   297.92856     -480847.26      83.759879     -480763.5      -827.16267      33551.578      30.401982      30.364726      36.344749      1.2641327      110.61299    
     55000   293.90603     -480847.54      82.628981     -480764.91     -677.66063      33217.728      30.300809      30.263677      36.2238        1.2768377      110.76605    
     56000   299.73475     -480848.37      84.267673     -480764.11     -285.76703      32918.805      30.209644      30.172624      36.114814      1.2884322      112.07887    
     57000   294.49605     -480846.72      82.794861     -480763.92     -7.2130091      32852.86       30.189458      30.152462      36.090682      1.2910184      113.80181    
     58000   294.7448      -480848.8       82.864794     -480765.94      615.87137      33061.062      30.253098      30.216024      36.166762      1.2828882      115.12144    
     59000   300.0531      -480850.21      84.357172     -480765.86     -1309.091       33260.089      30.313684      30.276537      36.239191      1.2752115      116.22215    
     60000   299.83017     -480846.6       84.294499     -480762.31     -317.37609      33278.181      30.319179      30.282025      36.245761      1.2745182      123.24722    
     61000   303.3804      -480848.99      85.292613     -480763.7       764.52561      33552.06       30.402128      30.364872      36.344924      1.2641146      125.47866    
     62000   305.09234     -480848.21      85.77391      -480762.43      319.32184      33680.627      30.440911      30.403607      36.391287      1.2592891      126.55429    
     63000   301.40789     -480848.09      84.73806      -480763.35      64.197587      33924.11       30.514089      30.476696      36.47877       1.2502509      127.37888    
     64000   296.65044     -480849.42      83.400546     -480766.02     -23.107724      34199.802      30.596526      30.559031      36.577321      1.2401723      126.98992    
     65000   303.52456     -480847.11      85.333143     -480761.78      1502.9227      33943.277      30.519834      30.482434      36.485639      1.2495449      129.65607    
     66000   294.17657     -480848.8       82.705042     -480766.09      1545.2832      34223.051      30.603457      30.565955      36.585607      1.2393298      127.73161    
     67000   297.7351      -480849.11      83.705488     -480765.4      -704.87813      34683.906      30.740216      30.702546      36.749099      1.2228625      129.18846    
     68000   302.29652     -480844.04      84.987889     -480759.05      38.053821      33984.167      30.532085      30.49467       36.500284      1.2480414      131.9065     
     69000   308.56443     -480848.1       86.750055     -480761.35     -892.37381      33704.233      30.448021      30.410708      36.399787      1.2584072      129.0319     
     70000   292.10687     -480846.01      82.123163     -480763.89      475.12837      32975.755      30.227055      30.190013      36.135628      1.286207       122.81084    
     71000   294.46435     -480847.81      82.785949     -480765.03     -1544.5826      33018.128      30.239996      30.202939      36.1511        1.2845564      111.30222    
     72000   301.36379     -480848.7       84.725663     -480763.98      8.4443421      33042.088      30.247309      30.210243      36.159842      1.2836249      110.98759    
     73000   301.38126     -480846.07      84.730572     -480761.34     -142.20773      33892.021      30.504465      30.467083      36.467264      1.2514346      111.02572    
     74000   289.88609     -480845.35      81.498812     -480763.85      311.44017      34156.238      30.583529      30.546051      36.561784      1.2417541      109.14884    
     75000   293.42258     -480845.33      82.493063     -480762.84      268.52617      33662.436      30.435429      30.398132      36.384734      1.2599697      110.04382    
     76000   294.7869      -480845.92      82.876629     -480763.04      121.27585      33396.431      30.355049      30.317851      36.288642      1.2700054      112.86703    
     77000   297.79367     -480846.86      83.721955     -480763.14      484.45825      32945.767      30.217889      30.180859      36.124671      1.2873777      112.19942    
     78000   297.92766     -480846.74      83.759624     -480762.98     -628.14923      33075.017      30.257354      30.220275      36.17185       1.282347       113.35891    
     79000   298.96644     -480848.74      84.05167      -480764.69      1137.0646      33204.377      30.296749      30.259622      36.218946      1.2773511      112.87443    
     80000   303.90788     -480848.11      85.440909     -480762.66      1256.5118      33739.28       30.458571      30.421246      36.4124        1.2571         111.82702    
     81000   301.26442     -480847.86      84.697725     -480763.16     -360.84003      33869.082      30.497581      30.460208      36.459035      1.2522822      112.08769    
     82000   295.03063     -480845.19      82.945152     -480762.25     -598.81654      33308.336      30.328334      30.291169      36.256706      1.2733644      111.65353    
     83000   298.81415     -480849.45      84.008853     -480765.44     -807.03585      33027.035      30.242715      30.205654      36.15435       1.28421        111.69146    
     84000   300.51863     -480849.36      84.488053     -480764.87     -847.25401      33528.421      30.394986      30.357739      36.336386      1.2650058      111.08151    
     85000   303.26021     -480847.06      85.258822     -480761.8      -617.9888       33782.052      30.471436      30.434096      36.42778       1.2555083      112.58758    
Loop time of 436.436 on 1 procs for 50000 steps with 2176 atoms

Performance: 2.475 ns/day, 9.699 hours/ns, 114.564 timesteps/s
107.3% CPU use with 1 MPI tasks x 1 OpenMP threads

MPI task timing breakdown:
Section |  min time  |  avg time  |  max time  |%varavg| %total
---------------------------------------------------------------
Pair    | 419.66     | 419.66     | 419.66     |   0.0 | 96.16
Neigh   | 9.4464     | 9.4464     | 9.4464     |   0.0 |  2.16
Comm    | 1.7059     | 1.7059     | 1.7059     |   0.0 |  0.39
Output  | 0.0030776  | 0.0030776  | 0.0030776  |   0.0 |  0.00
Modify  | 4.8555     | 4.8555     | 4.8555     |   0.0 |  1.11
Other   |            | 0.768      |            |       |  0.18

Nlocal:           2176 ave        2176 max        2176 min
Histogram: 1 0 0 0 0 0 0 0 0 0
Nghost:           4423 ave        4423 max        4423 min
Histogram: 1 0 0 0 0 0 0 0 0 0
Neighs:              0 ave           0 max           0 min
Histogram: 1 0 0 0 0 0 0 0 0 0
FullNghs:       196458 ave      196458 max      196458 min
Histogram: 1 0 0 0 0 0 0 0 0 0

Total # of neighbors = 196458
Ave neighs/atom = 90.284007
Neighbor list builds = 1194
Dangerous builds = 0
unfix	1

write_data      300K${taskid}.dat
write_data      300K2.dat
System init for write_data ...
Generated 0 of 6 mixed pair_coeff terms from geometric mixing rule
write_restart   300K${taskid}.rest
write_restart   300K2.rest
System init for write_restart ...
Generated 0 of 6 mixed pair_coeff terms from geometric mixing rule

#### Heat to 1500 K in NPT over 50 ps

dump	1 all custom 1000 md_melt${taskid}.lammpstrj id type x y z
dump	1 all custom 1000 md_melt2.lammpstrj id type x y z
fix	1 all npt temp 300 ${TempHi} $(100*dt) iso ${Press} ${Press} $(1000*dt)
fix	1 all npt temp 300 1500 $(100*dt) iso ${Press} ${Press} $(1000*dt)
fix	1 all npt temp 300 1500 0.025000000000000001388 iso ${Press} ${Press} $(1000*dt)
fix	1 all npt temp 300 1500 0.025000000000000001388 iso 0 ${Press} $(1000*dt)
fix	1 all npt temp 300 1500 0.025000000000000001388 iso 0 0 $(1000*dt)
fix	1 all npt temp 300 1500 0.025000000000000001388 iso 0 0 0.25
run	200000
Generated 0 of 6 mixed pair_coeff terms from geometric mixing rule
Per MPI rank memory allocation (min/avg/max) = 5.327 | 5.327 | 5.327 Mbytes
   Step          Temp          PotEng         KinEng         TotEng         Press          Volume           Lx             Ly             Lz          Density         S/CPU     
     85000   303.26021     -480847.06      85.258822     -480761.8      -617.9888       33782.052      30.471436      30.434096      36.42778       1.2555083      0            
     86000   302.60119     -480846.04      85.073544     -480760.97      245.71621      33909.97       30.509848      30.47246       36.473701      1.2507722      112.18216    
     87000   302.21108     -480847.87      84.963871     -480762.9      -1001.1884      33955.271      30.523429      30.486024      36.489936      1.2491035      112.93499    
     88000   310.67427     -480842.62      87.343218     -480755.27      396.41169      33541.387      30.398904      30.361652      36.341069      1.2645168      112.49995    
     89000   323.18742     -480839.45      90.861175     -480748.58      707.12073      33678.901      30.440391      30.403088      36.390666      1.2593537      112.32234    
     90000   331.62811     -480838.11      93.234197     -480744.87      1545.5153      33984.618      30.53222       30.494805      36.500445      1.2480248      111.48078    
     91000   342.31431     -480838.08      96.238524     -480741.84      450.91732      33983.546      30.531899      30.494484      36.500061      1.2480642      112.29807    
     92000   352.57936     -480837.9       99.124447     -480738.78     -1021.7554      34273.288      30.618424      30.580903      36.6035        1.2375132      110.57922    
     93000   352.8514      -480837.54      99.20093      -480738.34     -451.06278      33789.562      30.473694      30.436351      36.430479      1.2552293      112.31782    
     94000   353.89887     -480836.54      99.495417     -480737.04     -181.76011      33388.818      30.352742      30.315547      36.285884      1.270295       111.60367    
     95000   361.17639     -480833.29      101.54143     -480731.74     -197.42996      33731.548      30.456244      30.418922      36.409618      1.2573881      110.75126    
     96000   360.71438     -480831.08      101.41153     -480729.66     -1298.6194      33745.672      30.460494      30.423167      36.414699      1.2568619      112.37802    
     97000   371.48999     -480826.41      104.441       -480721.97     -596.69074      33462.749      30.375128      30.337906      36.312646      1.2674884      112.71002    
     98000   366.86955     -480824.29      103.142       -480721.15      1107.514       33491.318      30.38377       30.346537      36.322977      1.2664073      112.35502    
     99000   388.50484     -480825.22      109.22457     -480715.99     -280.01572      34439.436      30.667821      30.63024       36.662553      1.231543       110.89828    
    100000   382.93216     -480821.08      107.65786     -480713.42      1501.0438      34183.564      30.591682      30.554194      36.571531      1.2407614      111.76293    
    101000   392.27621     -480815.85      110.28485     -480705.57     -307.6413       34431.201      30.665377      30.627798      36.659631      1.2318376      111.42452    
    102000   406.75132     -480817.1       114.3544      -480702.74     -808.25621      34445.955      30.669756      30.632172      36.664866      1.23131        109.94404    
    103000   420.8708      -480814.7       118.32396     -480696.38     -739.80602      33667.285      30.43689       30.399592      36.386481      1.2597882      111.77176    
    104000   406.13318     -480817.23      114.18061     -480703.05     -982.39004      33575.169      30.409106      30.371841      36.353266      1.2632445      111.66568    
    105000   413.91382     -480814.3       116.36807     -480697.93     -2101.4352      33673.761      30.438842      30.401541      36.388814      1.2595459      111.23422    
    106000   419.14004     -480814.83      117.83737     -480696.99     -432.86021      33179.718      30.289247      30.25213       36.209978      1.2783004      109.73244    
    107000   430.83968     -480809.31      121.12662     -480688.18     -243.78962      33216.777      30.30052       30.263389      36.223454      1.2768743      110.53771    
    108000   445.16624     -480806.28      125.1544      -480681.12      725.56717      33263.975      30.314865      30.277716      36.240603      1.2750625      110.30172    
    109000   446.57929     -480811.72      125.55167     -480686.17     -1147.8944      33668.103      30.437137      30.399838      36.386776      1.2597576      109.07422    
    110000   446.51564     -480805.67      125.53377     -480680.14      987.51419      33251.732      30.311145      30.274         36.236156      1.275532       110.60558    
    111000   465.96493     -480801.99      131.00176     -480670.99      644.40549      33252.781      30.311464      30.274319      36.236537      1.2754917      109.79533    
    112000   462.06367     -480803.57      129.90496     -480673.66     -1365.2286      33458.376      30.373805      30.336584      36.311065      1.2676541      109.88271    
    113000   455.73011     -480802.05      128.12433     -480673.92      464.87092      33928.919      30.51553       30.478136      36.480493      1.2500736      108.87538    
    114000   464.30972     -480795.18      130.53641     -480664.64     -70.682205      34099.117      30.566471      30.529013      36.541391      1.2438342      110.4482     
    115000   480.2714      -480793.43      135.02389     -480658.41      563.31571      34294.52       30.624746      30.587217      36.611057      1.2367471      109.8397     
    116000   461.27561     -480797.77      129.6834      -480668.09      729.6235       33923.822      30.514002      30.476609      36.478667      1.2502615      110.18053    
    117000   496.56939     -480789.99      139.60592     -480650.39      1343.4938      33689.075      30.443456      30.406149      36.39433       1.2589733      110.39987    
    118000   472.9574      -480788.08      132.96763     -480655.12      1227.7677      34224.097      30.603769      30.566266      36.58598       1.239292       110.21582    
    119000   487.56038     -480786.68      137.07312     -480649.61      1353.963       33956.33       30.523746      30.486341      36.490315      1.2490645      110.02066    
    120000   503.6835      -480783.09      141.60599     -480641.48      2316.7306      33753.226      30.462767      30.425437      36.417416      1.2565806      109.00257    
    121000   498.74438     -480782.41      140.2174      -480642.2       1353.9865      33539.817      30.398429      30.361178      36.340502      1.264576       109.44661    
    122000   542.80991     -480781.04      152.60602     -480628.44     -365.62203      33777.116      30.469952      30.432613      36.426006      1.2556918      108.95232    
    123000   515.20346     -480782.08      144.84472     -480637.23      692.14697      34267.52       30.616707      30.579188      36.601447      1.2377215      109.24478    
    124000   542.67523     -480780.38      152.56816     -480627.81      296.05923      34267.303      30.616642      30.579123      36.60137       1.2377294      108.99107    
    125000   525.12969     -480779.18      147.63539     -480631.54      840.80316      34218.044      30.601965      30.564464      36.583823      1.2395112      109.75238    
    126000   553.38868     -480775.71      155.58014     -480620.13     -860.504        34577.455      30.708735      30.671103      36.711464      1.2266272      108.85547    
    127000   555.44782     -480779.41      156.15905     -480623.25     -406.16195      34520.621      30.691901      30.65429       36.691339      1.2286467      107.94227    
    128000   563.56693     -480775.59      158.44167     -480617.15     -680.06322      34009.633      30.539709      30.502285      36.509399      1.2471069      110.267      
    129000   564.20454     -480767.15      158.62092     -480608.53     -1165.9586      34055.989      30.553578      30.516137      36.525979      1.2454094      110.14065    
    130000   556.27261     -480773.65      156.39093     -480617.26     -723.25364      34593.818      30.713578      30.675941      36.717254      1.226047       109.3374     
    131000   579.21041     -480772.29      162.83969     -480609.45     -783.33097      34180.84       30.59087       30.553383      36.57056       1.2408603      108.1531     
    132000   592.25392     -480765.48      166.50675     -480598.98     -1186.0442      34757.211      30.761857      30.724161      36.774971      1.2202834      109.58123    
    133000   574.13802     -480767.51      161.41363     -480606.1      -484.44629      34888.215      30.800457      30.762713      36.821116      1.2157013      109.50452    
    134000   589.51658     -480764.85      165.73717     -480599.11      392.00568      34730.808      30.754066      30.716379      36.765656      1.2212111      107.97497    
    135000   604.03768     -480758.18      169.81964     -480588.36      1364.776       34072.658      30.558562      30.521115      36.531937      1.2448001      109.81134    
    136000   593.15992     -480759.55      166.76146     -480592.78      2693.7987      33948.764      30.521479      30.484077      36.487604      1.2493429      109.29472    
    137000   619.04407     -480752.86      174.03856     -480578.82      1836.7394      33700.405      30.446868      30.409557      36.398409      1.2585501      107.64472    
    138000   617.72157     -480756.9       173.66675     -480583.24      2003.9104      34726.446      30.752779      30.715093      36.764117      1.2213645      109.0253     
    139000   619.73803     -480752.57      174.23366     -480578.33      1549.7353      35120.433      30.868643      30.830815      36.90263       1.207663       108.74225    
    140000   656.07499     -480747.73      184.44946     -480563.28      1301.2655      34917.026      30.808933      30.771179      36.831249      1.2146982      108.221      
    141000   649.03452     -480744.64      182.47009     -480562.17     -2154.1801      34574.375      30.707823      30.670193      36.710374      1.2267365      107.06337    
    142000   628.26488     -480740.7       176.6309      -480564.07     -1961.8037      34155.165      30.583209      30.545731      36.561401      1.2417931      108.52017    
    143000   643.06478     -480745.59      180.79176     -480564.8       108.71638      33535.02       30.39698       30.35973       36.33877       1.2647569      107.79007    
    144000   657.04932     -480744.8       184.72338     -480560.07      975.15598      33446.73       30.37028       30.333064      36.306851      1.2680955      107.35167    
    145000   662.63327     -480733.93      186.29326     -480547.64     -1336.1848      34144.413      30.579999      30.542525      36.557564      1.2421841      109.41715    
    146000   663.8888      -480741.01      186.64624     -480554.36      2339.9467      34188.208      30.593068      30.555578      36.573187      1.2405929      110.81724    
    147000   642.83427     -480732.75      180.72695     -480552.02      1370.7335      34965.497      30.823183      30.785411      36.848284      1.2130143      113.47659    
    148000   677.6848      -480735.28      190.52486     -480544.75     -75.201642      34892.798      30.801806      30.76406       36.822728      1.2155416      111.97835    
    149000   684.84224     -480728.69      192.53711     -480536.15      2910.2219      33893.82       30.505004      30.467622      36.467909      1.2513682      110.8985     
    150000   671.67804     -480731.9       188.83611     -480543.07      957.24268      33746.254      30.460669      30.423341      36.414908      1.2568402      110.74898    
    151000   691.53891     -480729.46      194.41981     -480535.04     -865.80971      34313.402      30.630365      30.59283       36.617775      1.2360665      106.19429    
    152000   714.18424     -480729.02      200.78634     -480528.23      1038.7897      34435.999      30.666801      30.629221      36.661334      1.231666       107.7765     
    153000   697.07322     -480720.98      195.97573     -480525.01      1948.2757      33983.755      30.531961      30.494546      36.500136      1.2480565      108.01776    
    154000   700.20512     -480726.35      196.85624     -480529.49     -2307.828       34518.569      30.691292      30.653682      36.690612      1.2287197      107.4211     
    155000   721.36113     -480720.09      202.80406     -480517.29     -2305.0251      34296.8        30.625424      30.587895      36.611869      1.2366649      107.60667    
    156000   719.76623     -480716.46      202.35567     -480514.1      -1213.6097      34150.949      30.58195       30.544474      36.559896      1.2419464      108.00776    
    157000   734.13136     -480712.81      206.39429     -480506.42     -616.58058      33689.114      30.443467      30.406161      36.394344      1.2589719      108.30685    
    158000   770.70597     -480723.42      216.6769      -480506.74      43.880864      34070.973      30.558059      30.520612      36.531335      1.2448616      106.57467    
    159000   735.34162     -480720.21      206.73454     -480513.48      1731.9288      33868.291      30.497343      30.459971      36.458751      1.2523114      108.18625    
    160000   742.95153     -480717.4       208.874       -480508.52      844.49311      33940.774      30.519084      30.481685      36.484742      1.249637       107.25101    
    161000   746.49387     -480712.97      209.86989     -480503.1       1103.7626      34285.893      30.622177      30.584652      36.607987      1.2370583      107.88354    
    162000   744.96936     -480714.02      209.44129     -480504.58      2420.0314      34293.791      30.624529      30.587         36.610798      1.2367734      106.71664    
    163000   768.78235     -480701.46      216.1361      -480485.32      809.64571      35394.43       30.94871       30.910785      36.998348      1.1983142      107.80087    
    164000   744.90439     -480709.44      209.42303     -480500.02      377.07523      35541.07       30.991392      30.953414      37.049373      1.19337        107.83821    
    165000   757.44027     -480708.81      212.94738     -480495.86      1901.3086      34913.028      30.807758      30.770005      36.829843      1.2148373      106.88646    
    166000   782.07039     -480704.07      219.87191     -480484.19      248.81645      34980.437      30.827572      30.789795      36.853531      1.2124962      109.42069    
    167000   794.38978     -480692.39      223.33539     -480469.06     -259.37159      34432.604      30.665793      30.628214      36.660129      1.2317874      108.54565    
    168000   820.73902     -480692.48      230.74324     -480461.73     -1483.0185      34074.311      30.559057      30.521608      36.532528      1.2447397      110.27129    
    169000   782.6854      -480693.68      220.04481     -480473.64      473.35088      33912.976      30.51075       30.473361      36.474779      1.2506613      109.45278    
    170000   821.77443     -480700.27      231.03433     -480469.23     -1123.8873      33838.444      30.488382      30.45102       36.448038      1.253416       111.04475    
    171000   813.56023     -480690.16      228.72499     -480461.43     -650.23611      34433.897      30.666177      30.628598      36.660587      1.2317412      112.83084    
    172000   816.18574     -480702.36      229.46312     -480472.9       156.89286      34568.868      30.706193      30.668564      36.708425      1.2269319      107.73282    
    173000   818.34056     -480680.53      230.06893     -480450.46     -869.58383      35346.933      30.93486       30.896952      36.981791      1.1999244      107.86698    
    174000   840.72915     -480687.26      236.36328     -480450.89     -2741.7238      35363.319      30.93964       30.901725      36.987505      1.1993684      111.91641    
    175000   821.83113     -480684.74      231.05027     -480453.69     -2484.0077      35333.696      30.930998      30.893094      36.977174      1.2003739      117.08148    
    176000   855.58772     -480681.66      240.54063     -480441.12     -293.69866      35532.41       30.988875      30.9509        37.046364      1.1936609      122.62519    
    177000   872.8459      -480680.89      245.39261     -480435.5       101.7009       35346.541      30.934746      30.896838      36.981655      1.1999377      114.55161    
    178000   878.92673     -480679.1       247.10218     -480432         3.4001966      35019.299      30.838984      30.801193      36.867174      1.2111507      111.25768    
    179000   881.65567     -480675.31      247.86939     -480427.45      2230.2687      35077.854      30.856163      30.818351      36.887711      1.2091289      109.50032    
    180000   900.40105     -480676.95      253.13949     -480423.81      721.27853      35302.077      30.921769      30.883877      36.966141      1.2014491      111.45211    
    181000   856.11031     -480672.9       240.68755     -480432.22      757.21064      35451.07       30.96521       30.927264      37.018073      1.1963997      111.801      
    182000   864.31664     -480670.93      242.99469     -480427.94      472.74444      35553.962      30.995139      30.957156      37.053852      1.1929373      112.83482    
    183000   909.06485     -480666.55      255.57523     -480410.97     -3063.2413      35667.729      31.028163      30.99014       37.093332      1.1891323      113.30044    
    184000   874.77553     -480666.4       245.93511     -480420.46     -3299.7457      35131.26       30.871815      30.833983      36.906422      1.2072908      110.21311    
    185000   905.43664     -480670.34      254.55519     -480415.79     -957.21478      34920.643      30.809997      30.772242      36.832521      1.2145723      109.70225    
    186000   918.46952     -480658.85      258.21927     -480400.63     -3167.7643      35109.997      30.865585      30.827761      36.898974      1.208022       107.91317    
    187000   903.13449     -480660.26      253.90797     -480406.36      34.379503      34618.148      30.720777      30.68313       36.72586       1.2251853      109.66752    
    188000   902.23611     -480663.25      253.65539     -480409.59     -805.61228      34666.518      30.735078      30.697414      36.742957      1.2234759      109.48446    
    189000   942.25095     -480660.05      264.9052      -480395.15     -2697.8706      34822.832      30.781204      30.743484      36.7981        1.2179839      109.76803    
    190000   925.08263     -480664.34      260.07848     -480404.26     -1907.6525      35384.29       30.945755      30.907833      36.994815      1.1986576      108.10055    
    191000   909.57852     -480657.76      255.71965     -480402.04     -492.00172      35105.071      30.864141      30.826319      36.897249      1.2081915      110.42794    
    192000   951.0715      -480649.5       267.38502     -480382.11     -2112.4433      35364.69       30.94004       30.902125      36.987983      1.1993219      109.06494    
    193000   924.76966     -480662.91      259.9905      -480402.92     -57.130392      34803.459      30.775495      30.737782      36.791274      1.2186619      109.16318    
    194000   958.58679     -480648.65      269.49787     -480379.15      649.63223      34629.667      30.724184      30.686533      36.729933      1.2247778      111.14685    
    195000   933.73414     -480650.89      262.51078     -480388.38     -1912.6879      34674.803      30.737527      30.69986       36.745884      1.2231835      112.02458    
    196000   966.90134     -480638.67      271.83543     -480366.84      18.20392       35582.639      31.00347       30.965477      37.063812      1.1919759      110.97157    
    197000   988.88966     -480650.45      278.01725     -480372.43      775.4056       35933.678      31.105091      31.066974      37.185297      1.1803314      116.38619    
    198000   958.61626     -480638.41      269.50616     -480368.9      -421.41276      35332.739      30.930719      30.892816      36.97684       1.2004064      123.03084    
    199000   1003.8108     -480640.17      282.21217     -480357.95     -276.99523      35748.887      31.051679      31.013627      37.121445      1.1864327      122.06248    
    200000   1001.2581     -480640.56      281.49451     -480359.07     -615.27096      35507.959      30.981765      30.943798      37.037864      1.1944829      122.92897    
    201000   982.29955     -480631.67      276.1645      -480355.5       83.794725      34669.367      30.73592       30.698255      36.743963      1.2233753      124.73032    
    202000   995.19332     -480628.02      279.78946     -480348.23      1560.5217      34383.506      30.651211      30.61365       36.642696      1.2335463      123.00631    
    203000   992.9418      -480637.26      279.15647     -480358.1       258.65527      34257.976      30.613864      30.576349      36.598048      1.2380664      124.47445    
    204000   1016.2919     -480636.34      285.72114     -480350.62      1596.864       34714.299      30.749192      30.711511      36.75983       1.2217919      121.57818    
    205000   1054.1099     -480619.76      296.35332     -480323.41      1346.3993      34789.635      30.77142       30.733712      36.786403      1.2191461      121.21227    
    206000   1050.6234     -480627.85      295.37312     -480332.48      1903.7946      35265.65       30.91113       30.87325       36.953422      1.2026901      110.83015    
    207000   1047.7179     -480628.57      294.55627     -480334.01     -139.09927      36683.669      31.320006      31.281626      37.442222      1.1561997      113.85038    
    208000   1082.9967     -480634.8       304.47458     -480330.32     -1548.134       36284.612      31.206022      31.167781      37.305957      1.1689156      112.65368    
    209000   1047.6006     -480620.43      294.52328     -480325.91     -866.28121      35785.274      31.062211      31.024146      37.134035      1.1852263      119.40172    
    210000   1057.7572     -480629.66      297.37872     -480332.29      107.35963      35295.247      30.919775      30.881885      36.963757      1.2016816      122.21385    
    211000   1026.2972     -480617.45      288.53403     -480328.91      187.45431      34745.492      30.7584        30.720707      36.770837      1.220695       122.78027    
    212000   1064.8001     -480610.83      299.35876     -480311.47     -2035.1625      35473.939      30.971867      30.933913      37.026032      1.1956284      125.85712    
    213000   1076.6627     -480624.96      302.69383     -480322.26      814.2836       35235.411      30.902292      30.864423      36.942857      1.2037222      123.90818    
    214000   1091.1074     -480602.55      306.75483     -480295.8      -1297.2553      35298.986      30.920867      30.882975      36.965062      1.2015543      126.27717    
    215000   1049.3524     -480606.34      295.01579     -480311.32      818.46072      35281.808      30.91585       30.877965      36.959065      1.2021393      124.02216    
    216000   1107.7306     -480608.77      311.42829     -480297.34      1827.1355      34270.545      30.617608      30.580088      36.602524      1.2376123      108.45531    
    217000   1056.7009     -480619.66      297.08174     -480322.58     -1753.7555      34530.329      30.694777      30.657163      36.694778      1.2283013      109.71584    
    218000   1077.7366     -480611.2       302.99575     -480308.2      -2004.2874      35171.543      30.88361       30.845764      36.920522      1.2059081      107.67571    
    219000   1104.347      -480611.65      310.47701     -480301.17      866.78083      36567.55       31.286924      31.248584      37.402674      1.1598712      108.88963    
    220000   1094.8959     -480589.59      307.81992     -480281.77     -524.60785      37299.208      31.494215      31.455621      37.650484      1.1371192      110.31573    
    221000   1080.7504     -480589.88      303.84305     -480286.04      1818.5158      36924.182      31.388306      31.349842      37.523873      1.1486686      108.37825    
    222000   1131.1997     -480599.9       318.02639     -480281.88      402.90576      36086.454      31.149111      31.110939      37.237921      1.1753343      108.70713    
    223000   1173.5873     -480596.81      329.94328     -480266.87     -1458.4321      35980.059      31.118468      31.080334      37.201289      1.1788098      107.71231    
    224000   1144.7904     -480595.07      321.84732     -480273.22     -1435.1926      35652.163      31.023649      30.985631      37.087935      1.1896515      109.05348    
    225000   1169.3582     -480582.43      328.75431     -480253.68      247.43278      35164.97       30.881686      30.843842      36.918222      1.2061335      107.76842    
    226000   1109.996      -480591.84      312.06517     -480279.78     -1542.8508      35258.764      30.909118      30.871241      36.951016      1.202925       105.88051    
    227000   1140.7347     -480595.97      320.70708     -480275.27      1596.8077      35593.73       31.006691      30.968694      37.067662      1.1916045      108.39864    
    228000   1156.9058     -480588.35      325.25343     -480263.09      2452.4741      36570.395      31.287735      31.249394      37.403644      1.159781       111.32168    
    229000   1137.8695     -480578.64      319.90157     -480258.74      37.64857       37042.301      31.42174       31.383235      37.563843      1.1450057      110.17118    
    230000   1200.0235     -480577.5       337.37558     -480240.12     -2641.6386      37291.822      31.492136      31.453544      37.647999      1.1373445      109.84431    
    231000   1181.3026     -480580.95      332.11237     -480248.84     -2855.7014      36578.72       31.290109      31.251765      37.406482      1.159517       111.89831    
    232000   1220.5951     -480589.65      343.15911     -480246.49      1494.4682      35328.835      30.92958       30.891678      36.975478      1.2005391      112.28016    
    233000   1234.7849     -480576.26      347.14843     -480229.11     -1919.0129      35433.922      30.960217      30.922277      37.012104      1.1969786      123.55229    
    234000   1224.4117     -480576.02      344.23212     -480231.78     -1901.6065      35220.544      30.897946      30.860082      36.93766       1.2042303      127.48711    
    235000   1196.7001     -480564.85      336.44125     -480228.41      238.81067      35305.905      30.922887      30.884993      36.967477      1.2013188      124.11102    
    236000   1219.5102     -480572.24      342.8541      -480229.39      3156.0546      34912.851      30.807705      30.769953      36.829781      1.2148434      114.95016    
    237000   1215.4353     -480573.4       341.70848     -480231.69      1917.9501      35495.087      30.97802       30.940059      37.033388      1.194916       107.04374    
    238000   1226.3821     -480571.02      344.78606     -480226.23     -1858.3314      35869.122      31.086452      31.048358      37.163015      1.1824557      108.99785    
    239000   1210.008      -480560.51      340.18263     -480220.32     -2307.0358      36502.537      31.268372      31.230054      37.380495      1.161937       107.69505    
    240000   1207.3327     -480567.6       339.43049     -480228.17     -935.31033      36157.016      31.1694        31.131204      37.262177      1.1730406      107.03748    
    241000   1263.9419     -480561.7       355.34565     -480206.35     -78.922615      35465.302      30.969353      30.931402      37.023027      1.1959195      107.57452    
    242000   1234.8486     -480551.31      347.16635     -480204.14     -580.35229      35809.858      31.069322      31.031249      37.142537      1.1844126      108.49868    
    243000   1260.4552     -480556.91      354.36541     -480202.54     -1427.9316      35772.32       31.058462      31.020402      37.129554      1.1856555      106.15069    
    244000   1271.0635     -480565.36      357.34784     -480208.01      719.56007      35258.604      30.909071      30.871194      36.95096       1.2029304      107.7617     
    245000   1254.0299     -480546.55      352.55899     -480194        -2564.0823      35334.577      30.931255      30.893351      36.977481      1.200344       107.9948     
    246000   1277.4266     -480547.74      359.13677     -480188.61     -4506.4262      35510.802      30.982592      30.944624      37.038852      1.1943872      106.44582    
    247000   1279.9565     -480548.81      359.84801     -480188.97      978.48725      34611.978      30.718951      30.681307      36.723678      1.2254038      107.17954    
    248000   1254.0668     -480542.38      352.56936     -480189.81      3539.4238      34541.546      30.698101      30.660482      36.698751      1.2279024      106.81117    
    249000   1314.8701     -480548.89      369.66366     -480179.23      1970.5134      35608.238      31.010903      30.972901      37.072698      1.191119       107.41668    
    250000   1322.0766     -480547.17      371.68968     -480175.48     -2256.3411      37186.312      31.462407      31.423852      37.612459      1.1405715      106.27029    
    251000   1286.2354     -480540.46      361.61327     -480178.85      2418.4705      36363.046      31.228491      31.190223      37.332819      1.1663942      107.63559    
    252000   1328.6581     -480533.15      373.54002     -480159.61     -2389.7537      36153.227      31.168311      31.130116      37.260875      1.1731635      107.6258     
    253000   1353.888      -480532.63      380.63316     -480152        -6585.6076      34973.205      30.825448      30.787673      36.850991      1.212747       105.88132    
    254000   1292.5502     -480529.72      363.38861     -480166.33      1122.2052      34666.442      30.735056      30.697392      36.74293       1.2234785      106.77668    
    255000   1304.3235     -480539.43      366.69856     -480172.73     -827.05053      35435.909      30.960795      30.922855      37.012796      1.1969115      105.63559    
    256000   1313.873      -480534.93      369.38333     -480165.54      2509.5019      36293.683      31.208622      31.170378      37.309066      1.1686234      106.92046    
    257000   1333.7114     -480529.85      374.96072     -480154.89      1368.1155      35982.135      31.119066      31.080932      37.202004      1.1787418      106.80211    
    258000   1306.0488     -480535.24      367.18363     -480168.05      2145.2654      36326.631      31.218063      31.179808      37.320353      1.1675635      106.72759    
    259000   1354.986      -480524.84      380.94186     -480143.9      -2503.2614      36697.622      31.323976      31.285591      37.446969      1.1557601      106.78754    
    260000   1350.2508     -480521.87      379.61062     -480142.26      832.81184      37155.01       31.453577      31.415033      37.601903      1.1415324      106.03663    
    261000   1347.6748     -480517.89      378.88641     -480139        -4203.2836      37484.248      31.54621       31.507552      37.712643      1.1315059      107.67984    
    262000   1388.0253     -480523.97      390.23056     -480133.74      4002.5569      36799.044      31.352807      31.314386      37.481435      1.1525747      106.97704    
    263000   1378.7875     -480514.01      387.63343     -480126.38      88.212419      37341.201      31.50603       31.467421      37.664608      1.1358405      105.69655    
    264000   1363.8058     -480499.15      383.42147     -480115.73     -1962.289       37120.28       31.443774      31.405242      37.590183      1.1426004      107.53626    
    265000   1395.6833     -480508.3       392.38354     -480115.91     -2154.2494      37115.604      31.442453      31.403923      37.588605      1.1427444      106.47884    
    266000   1411.9943     -480514.48      396.96923     -480117.51      5053.6866      36646.01       31.309285      31.270917      37.429405      1.1573879      106.91518    
    267000   1411.9317     -480502.11      396.95163     -480105.16     -2274.6097      36919.786      31.38706       31.348597      37.522384      1.1488054      105.17635    
    268000   1429.3912     -480501.08      401.86021     -480099.22      1981.043       36885.527      31.377349      31.338898      37.510774      1.1498724      106.24776    
    269000   1443.3304     -480511.56      405.77908     -480105.78      2537.958       38644.657      31.868435      31.829382      38.097854      1.0975294      106.15629    
    270000   1430.8008     -480501.5       402.2565      -480099.25      272.15802      38798.653      31.91071       31.871605      38.148393      1.0931732      106.11781    
    271000   1424.2208     -480482.37      400.4066      -480081.96      947.5105       38564.188      31.8463        31.807274      38.071392      1.0998195      107.61213    
    272000   1428.4807     -480488.9       401.60424     -480087.29     -3276.8799      38192.831      31.743748      31.704848      37.948794      1.1105133      107.31587    
    273000   1392.7947     -480490.22      391.57144     -480098.64      245.74415      37392.488      31.520447      31.481821      37.681844      1.1342826      106.57519    
    274000   1457.8291     -480485.7       409.85527     -480075.84     -2652.0876      36397.505      31.238352      31.200072      37.344608      1.16529        105.16058    
    275000   1470.3583     -480474.71      413.37774     -480061.33     -4971.5381      36532.103      31.276811      31.238484      37.390584      1.1609966      105.87556    
    276000   1473.1382     -480482.06      414.15928     -480067.9       501.93706      36622.121      31.30248       31.264121      37.421271      1.1581428      106.05713    
    277000   1464.5598     -480474.61      411.74755     -480062.86      4173.4526      37583.851      31.574126      31.535434      37.746016      1.1285072      104.98646    
    278000   1473.2066     -480488.35      414.17852     -480074.17      3944.9679      37616.077      31.583148      31.544445      37.756801      1.1275404      106.47285    
    279000   1477.9247     -480463.11      415.50496     -480047.6      -1766.5303      37163.888      31.456082      31.417535      37.604898      1.1412597      105.70704    
    280000   1461.0788     -480472.9       410.76888     -480062.13     -599.6909       37540.624      31.562017      31.523339      37.731539      1.1298067      105.95639    
    281000   1450.9258     -480465.87      407.91447     -480057.96      770.74036      36606.381      31.297995      31.259641      37.415908      1.1586408      104.72222    
    282000   1495.3046     -480469.48      420.39115     -480049.08     -2810.8856      37332.494      31.503581      31.464975      37.661681      1.1361054      106.06642    
    283000   1525.0116     -480478.73      428.74301     -480049.99     -2016.5731      37082.438      31.433085      31.394566      37.577405      1.1437664      105.33068    
    284000   1464.5668     -480465.55      411.7495      -480053.8       1435.1755      36873.755      31.37401       31.335564      37.506783      1.1502395      104.84054    
    285000   1452.5082     -480461.48      408.35933     -480053.12     -892.2363       36795.953      31.351929      31.313509      37.480385      1.1526715      105.81863    
Loop time of 1814.15 on 1 procs for 200000 steps with 2176 atoms

Performance: 2.381 ns/day, 10.079 hours/ns, 110.245 timesteps/s
107.2% CPU use with 1 MPI tasks x 1 OpenMP threads

MPI task timing breakdown:
Section |  min time  |  avg time  |  max time  |%varavg| %total
---------------------------------------------------------------
Pair    | 1707.4     | 1707.4     | 1707.4     |   0.0 | 94.12
Neigh   | 76.192     | 76.192     | 76.192     |   0.0 |  4.20
Comm    | 7.2671     | 7.2671     | 7.2671     |   0.0 |  0.40
Output  | 0.737      | 0.737      | 0.737      |   0.0 |  0.04
Modify  | 19.782     | 19.782     | 19.782     |   0.0 |  1.09
Other   |            | 2.768      |            |       |  0.15

Nlocal:           2176 ave        2176 max        2176 min
Histogram: 1 0 0 0 0 0 0 0 0 0
Nghost:           4241 ave        4241 max        4241 min
Histogram: 1 0 0 0 0 0 0 0 0 0
Neighs:              0 ave           0 max           0 min
Histogram: 1 0 0 0 0 0 0 0 0 0
FullNghs:       180970 ave      180970 max      180970 min
Histogram: 1 0 0 0 0 0 0 0 0 0

Total # of neighbors = 180970
Ave neighs/atom = 83.16636
Neighbor list builds = 9702
Dangerous builds = 1
unfix	1
undump	1

fix	1 all npt temp ${TempHi} ${TempHi} $(100*dt) iso ${Press} ${Press} $(1000*dt)
fix	1 all npt temp 1500 ${TempHi} $(100*dt) iso ${Press} ${Press} $(1000*dt)
fix	1 all npt temp 1500 1500 $(100*dt) iso ${Press} ${Press} $(1000*dt)
fix	1 all npt temp 1500 1500 0.025000000000000001388 iso ${Press} ${Press} $(1000*dt)
fix	1 all npt temp 1500 1500 0.025000000000000001388 iso 0 ${Press} $(1000*dt)
fix	1 all npt temp 1500 1500 0.025000000000000001388 iso 0 0 $(1000*dt)
fix	1 all npt temp 1500 1500 0.025000000000000001388 iso 0 0 0.25
run	200000
Generated 0 of 6 mixed pair_coeff terms from geometric mixing rule
Per MPI rank memory allocation (min/avg/max) = 3.997 | 3.997 | 3.997 Mbytes
   Step          Temp          PotEng         KinEng         TotEng         Press          Volume           Lx             Ly             Lz          Density         S/CPU     
    285000   1452.5082     -480461.48      408.35933     -480053.12     -892.2363       36795.953      31.351929      31.313509      37.480385      1.1526715      0            
    286000   1488.3623     -480462.1       418.4394      -480043.66      1639.8435      36521.483      31.27378       31.235456      37.386961      1.1613342      106.07914    
    287000   1490.7446     -480457.8       419.10916     -480038.69      756.08951      36569.91       31.287597      31.249256      37.403478      1.1597964      104.78734    
    288000   1530.5954     -480475.39      430.31285     -480045.07     -821.6223       35954.372      31.111061      31.072936      37.192434      1.179652       105.74168    
    289000   1520.8257     -480467.16      427.56617     -480039.6      -603.23482      37345.242      31.507166      31.468556      37.665967      1.1357176      105.22478    
    290000   1537.1954     -480452.98      432.16838     -480020.81      2070.6511      37703.24       31.607524      31.568791      37.785942      1.1249338      105.93166    
    291000   1541.2433     -480469.18      433.30641     -480035.87     -824.67148      38050.709      31.704324      31.665473      37.901664      1.1146612      106.14798    
    292000   1520.3604     -480456.3       427.43535     -480028.87     -3342.2157      37795.482      31.633279      31.594514      37.816732      1.1221883      106.73102    
    293000   1539.4143     -480456.19      432.79218     -480023.4       1796.3936      37945.084      31.674961      31.636145      37.866561      1.117764       107.02524    
    294000   1544.928      -480457.25      434.34232     -480022.9       1355.0728      38456.557      31.816645      31.777656      38.035941      1.1028977      105.38248    
    295000   1511.3723     -480467.14      424.90844     -480042.23     -1148.4264      38502.442      31.829294      31.790289      38.051063      1.1015833      107.27433    
    296000   1523.7834     -480466.84      428.39771     -480038.44      2477.2434      37372.488      31.514826      31.476207      37.675125      1.1348896      109.82468    
    297000   1490.6992     -480453.58      419.09638     -480034.48     -2440.627       37088.088      31.434682      31.39616       37.579314      1.1435922      110.37799    
    298000   1520.6617     -480450.29      427.52007     -480022.77      1184.3734      37640.905      31.590095      31.551384      37.765107      1.1267967      107.70803    
    299000   1500.2983     -480463.25      421.79507     -480041.45      183.15721      38182.391      31.740855      31.701959      37.945336      1.110817       109.36352    
    300000   1463.4014     -480465.67      411.42185     -480054.25     -1386.7101      38747.359      31.896641      31.857554      38.131574      1.0946204      109.61148    
    301000   1530.2175     -480458.08      430.20659     -480027.87      1285.1032      38774.398      31.904059      31.864962      38.140442      1.093857       107.84341    
    302000   1540.3769     -480459.23      433.06283     -480026.16      1121.9525      39847.938      32.195823      32.156369      38.489238      1.0643875      108.93637    
    303000   1486.7566     -480466.08      417.98796     -480048.1       4883.4616      38185.844      31.741812      31.702914      37.94648       1.1107165      108.42091    
    304000   1503.3081     -480459.8       422.64127     -480037.16     -1515.2302      38912.428      31.941871      31.902729      38.185646      1.0899769      108.18916    
    305000   1486.658      -480462.75      417.96025     -480044.79      1065.6656      38497.822      31.828021      31.789018      38.049541      1.1017155      107.2241     
    306000   1500.0543     -480474.98      421.72649     -480053.26      248.01183      38099.61       31.7179        31.679032      37.917894      1.1132305      108.32901    
    307000   1515.1449     -480477.52      425.96907     -480051.55      6659.2183      37064.331      31.427968      31.389455      37.571288      1.1443252      107.68239    
    308000   1533.5567     -480465.4       431.14539     -480034.25      403.84037      37151.162      31.452491      31.413948      37.600605      1.1416506      107.34286    
    309000   1554.9778     -480462.83      437.16772     -480025.66      1059.3554      37625.927      31.585904      31.547198      37.760097      1.1272453      110.01044    
    310000   1501.7627     -480467.42      422.20678     -480045.21      582.73938      37501.183      31.550959      31.512296      37.718321      1.1309949      110.12097    
    311000   1491.4892     -480459.01      419.31848     -480039.69      2490.0763      37023.501      31.416424      31.377925      37.557487      1.1455872      109.25955    
    312000   1466.554      -480463.96      412.30818     -480051.65     -1631.8738      38300.885      31.773656      31.734719      37.984548      1.1073804      111.60461    
    313000   1460.0694     -480472.3       410.48511     -480061.81     -2810.341       38817.396      31.915847      31.876737      38.154535      1.0926454      124.8178     
    314000   1541.2233     -480458.4       433.30076     -480025.1       1451.9671      38890.422      31.935849      31.896714      38.178446      1.0905937      130.72236    
    315000   1494.5613     -480449.77      420.18217     -480029.59     -3843.5668      38906.568      31.940268      31.901127      38.183729      1.0901411      124.9689     
    316000   1497.1705     -480447.58      420.91574     -480026.67     -38.765588      38306.19       31.775123      31.736184      37.986302      1.107227       126.32878    
    317000   1495.3215     -480459.98      420.3959      -480039.59      1026.5897      38486.884      31.825006      31.786007      38.045937      1.1020286      124.05322    
    318000   1466.9842     -480472.37      412.42913     -480059.94     -2931.9628      38188.573      31.742568      31.703669      37.947384      1.1106372      112.46269    
    319000   1517.9792     -480465.43      426.76591     -480038.66     -3813.1603      37972.636      31.682626      31.643801      37.875724      1.1169529      109.87512    
    320000   1467.1743     -480465.55      412.48257     -480053.07     -115.8898       37157.02       31.454144      31.415599      37.602581      1.1414706      108.52559    
    321000   1470.6383     -480466.84      413.45645     -480053.38      782.94781      37599.608      31.578538      31.539841      37.751291      1.1280343      106.97329    
    322000   1531.0322     -480443.68      430.43563     -480013.24     -287.72885      37914.006      31.666311      31.627506      37.856221      1.1186802      106.40612    
    323000   1497.2975     -480465.14      420.95143     -480044.19      910.66456      38163.11       31.735511      31.696622      37.938948      1.1113782      108.47184    
    324000   1535.1963     -480454.27      431.60635     -480022.66     -906.577        38886.817      31.934862      31.895728      38.177266      1.0906948      108.40118    
    325000   1476.0511     -480446.4       414.97822     -480031.42     -1887.1987      38546.178      31.841341      31.802322      38.065465      1.1003334      107.78915    
    326000   1452.7396     -480457.44      408.42441     -480049.01      1169.6933      38640.042      31.867166      31.828115      38.096337      1.0976605      107.54898    
    327000   1508.0289     -480461.22      423.96848     -480037.25      412.20864      38679.325      31.877962      31.838897      38.109243      1.0965457      108.66642    
    328000   1508.8574     -480469.82      424.2014      -480045.62     -1349.513       38804.736      31.912377      31.873271      38.150386      1.0930018      108.33601    
    329000   1484.0549     -480455.96      417.2284      -480038.73      1726.313       38157.767      31.73403       31.695142      37.937177      1.1115338      108.22667    
    330000   1451.1623     -480464.74      407.98096     -480056.76     -631.67321      38173.795      31.738473      31.69958       37.942488      1.1110671      107.55851    
    331000   1530.4281     -480471.68      430.26579     -480041.42      667.03215      36710.426      31.327619      31.289229      37.451324      1.155357       107.3453     
    332000   1540.3442     -480460.5       433.05363     -480027.45      3579.6121      36192.001      31.17945       31.141241      37.274191      1.1719067      106.92943    
    333000   1531.6807     -480466.8       430.61797     -480036.18      2169.8655      36358.87       31.227296      31.189029      37.331389      1.1665282      106.48856    
    334000   1540.9336     -480476.59      433.21934     -480043.37     -2924.4563      37210.873      31.469333      31.430769      37.620738      1.1398187      106.70359    
    335000   1485.121      -480451.42      417.52812     -480033.89      79.804115      36640.826      31.307808      31.269443      37.42764       1.1575516      106.6848     
    336000   1495.0445     -480468.95      420.31803     -480048.63      2094.0454      37181.825      31.461142      31.422588      37.610946      1.1407092      105.94782    
    337000   1524.4135     -480460.36      428.57486     -480031.78     -2839.4956      37639.661      31.589747      31.551036      37.764691      1.1268339      107.47912    
    338000   1494.2833     -480459.95      420.10401     -480039.85      1067.3465      37758.838      31.623052      31.5843        37.804506      1.1232774      108.05927    
    339000   1423.959      -480469.2       400.33299     -480068.86     -3554.8446      38071.578      31.710119      31.67126       37.908592      1.1140502      106.03396    
    340000   1452.9002     -480453.84      408.46954     -480045.37     -1063.3966      37654.087      31.593782      31.555066      37.769514      1.1264022      107.51068    
    341000   1521.6345     -480463.09      427.79356     -480035.29      1018.1372      38406.145      31.802736      31.763764      38.019313      1.1043454      107.72423    
    342000   1526.9397     -480461.43      429.28507     -480032.15     -2113.8395      39412.485      32.078116      32.038807      38.348523      1.0761475      107.84658    
    343000   1509.4959     -480457.34      424.38091     -480032.96     -561.20755      39406.568      32.076511      32.037203      38.346603      1.0763091      107.76851    
    344000   1495.8315     -480468.46      420.53929     -480047.92      1607.74        38312.567      31.776886      31.737945      37.98841       1.1070427      107.81441    
    345000   1485.3359     -480462.94      417.58855     -480045.35     -2051.7097      37753.327      31.621514      31.582764      37.802667      1.1234413      107.28043    
    346000   1480.3932     -480450.69      416.19894     -480034.49      3657.9362      37693.269      31.604737      31.566008      37.782611      1.1252313      105.74423    
    347000   1511.5663     -480459.32      424.96299     -480034.36     -3235.4764      37711.628      31.609868      31.571132      37.788744      1.1246836      107.41328    
    348000   1437.4459     -480463.4       404.1247      -480059.27      3747.0819      37869.686      31.653967      31.615177      37.841464      1.1199894      107.16235    
    349000   1458.5543     -480467.74      410.05915     -480057.68     -10.637932      38354.747      31.788543      31.749588      38.002346      1.1058252      106.73594    
    350000   1509.957      -480449.63      424.51054     -480025.12      2504.9975      38859.384      31.927351      31.888226      38.168287      1.0914648      106.00389    
    351000   1497.8461     -480450.18      421.10567     -480029.07      414.38062      38850.567      31.924936      31.885814      38.1654        1.0917125      106.5939     
    352000   1466.0742     -480450.39      412.17329     -480038.21     -3128.735       37860.699      31.651463      31.612676      37.83847       1.1202553      107.25583    
    353000   1523.1417     -480452.42      428.2173      -480024.2       3612.8436      38553.196      31.843274      31.804252      38.067775      1.1001331      106.15201    
    354000   1541.4596     -480444.01      433.3672      -480010.65     -620.06594      38425.789      31.808158      31.769179      38.025794      1.1037808      107.41002    
    355000   1543.4237     -480454.6       433.91939     -480020.68     -751.59143      38926.039      31.945595      31.906448      38.190098      1.0895958      106.50535    
    356000   1507.9948     -480456.05      423.95888     -480032.09     -1856.5871      38736.354      31.893621      31.854538      38.127964      1.0949313      107.08991    
    357000   1470.9238     -480445.82      413.53673     -480032.28      375.5532       39290.322      32.044939      32.00567       38.30886       1.0794935      107.06463    
    358000   1496.4311     -480459.91      420.70785     -480039.21      3536.002       38224.829      31.75261       31.713699      37.959389      1.1095837      106.85679    
    359000   1564.9753     -480463.55      439.97844     -480023.57      2550.4495      38076.662      31.711531      31.67267       37.91028       1.1139014      106.84474    
    360000   1519.8733     -480454.83      427.29841     -480027.53      4374.3016      37749.282      31.620384      31.581636      37.801317      1.1235617      106.23598    
    361000   1537.5337     -480454.9       432.26347     -480022.63     -5352.6805      37390.637      31.519927      31.481301      37.681222      1.1343387      107.9242     
    362000   1551.0325     -480453.67      436.05854     -480017.61      585.84398      37074.921      31.430961      31.392444      37.574866      1.1439983      106.32058    
    363000   1521.5286     -480464.89      427.76379     -480037.12      408.65659      36851.648      31.367739      31.3293        37.499286      1.1509295      105.67182    
    364000   1491.5102     -480447.08      419.3244      -480027.76     -3402.3873      36880.323      31.375873      31.337424      37.50901       1.1500346      106.80758    
    365000   1492.8275     -480453.83      419.69473     -480034.13      1924.6502      37492.156      31.548428      31.509767      37.715294      1.1312672      108.45835    
    366000   1496.854      -480455.99      420.82675     -480035.16      5524.576       36690.115      31.32184       31.283458      37.444415      1.1559966      106.59848    
    367000   1532.0258     -480456.32      430.71499     -480025.6      -1115.7173      38201.012      31.746014      31.707111      37.951503      1.1102755      104.98757    
    368000   1492.4057     -480456.64      419.57615     -480037.06     -1877.4123      37778.461      31.62853       31.589771      37.811054      1.1226939      106.75766    
    369000   1518.7382     -480450.01      426.97928     -480023.03     -852.78466      36497.906      31.267049      31.228733      37.378914      1.1620844      106.2029     
    370000   1494.2559     -480450.34      420.09633     -480030.25      2606.0936      37336.945      31.504833      31.466225      37.663177      1.13597        104.48344    
    371000   1477.78       -480447.94      415.46428     -480032.47      528.06607      36782.783      31.348188      31.309773      37.475913      1.1530843      106.38406    
    372000   1512.2819     -480453.98      425.16417     -480028.82      1878.474       35766.208      31.056693      31.018635      37.127439      1.1858581      105.02544    
    373000   1485.8376     -480462.3       417.72958     -480044.57     -1954.8793      36345.173      31.223374      31.185112      37.326701      1.1669678      104.33089    
    374000   1505.3617     -480468.67      423.21863     -480045.45      1884.9865      37085.169      31.433857      31.395337      37.578328      1.1436822      105.81523    
    375000   1467.1967     -480439.46      412.48887     -480026.97      1712.3686      36032.004      31.133436      31.095284      37.219183      1.1771104      105.80674    
    376000   1468.4957     -480449.32      412.85407     -480036.47     -2784.3155      36156.114      31.169141      31.130945      37.261867      1.1730699      105.29103    
    377000   1499.726      -480455.67      421.6342      -480034.03      1459.1453      36481.963      31.262496      31.224186      37.373471      1.1625922      104.29805    
    378000   1543.335      -480456.23      433.89447     -480022.34      57.377421      37574.343      31.571463      31.532775      37.742833      1.1287928      106.03972    
    379000   1487.3018     -480456.08      418.14125     -480037.94      2153.7198      37534.261      31.560233      31.521558      37.729407      1.1299982      106.52149    
    380000   1487.5502     -480441.38      418.21109     -480023.17      2512.6059      36750.151      31.338915      31.300511      37.464827      1.1541081      104.40299    
    381000   1478.7584     -480454.67      415.73934     -480038.93      2030.6899      37022.36       31.416101      31.377602      37.557101      1.1456225      105.92761    
    382000   1427.4825     -480457.03      401.32359     -480055.7      -350.01864      36677.273      31.318186      31.279807      37.440046      1.1564014      105.47532    
[...]
write_data	glass${taskid}.dat
write_data	glass2.dat
System init for write_data ...
Generated 0 of 6 mixed pair_coeff terms from geometric mixing rule
write_restart	glass${taskid}.rest
write_restart	glass2.rest
System init for write_restart ...
Generated 0 of 6 mixed pair_coeff terms from geometric mixing rule

#### Extract trajectory for analysis

dump	1 all custom 1000 mdstat${taskid}.lammpstrj id type x y z
dump	1 all custom 1000 mdstat2.lammpstrj id type x y z
fix     1 all nvt temp 300 300 $(100*dt)
fix     1 all nvt temp 300 300 0.025000000000000001388
run 	100000
Generated 0 of 6 mixed pair_coeff terms from geometric mixing rule
Per MPI rank memory allocation (min/avg/max) = 5.333 | 5.333 | 5.333 Mbytes
   Step          Temp          PotEng         KinEng         TotEng         Press          Volume           Lx             Ly             Lz          Density         S/CPU     
   1495000   299.89952     -480836         84.313996     -480751.69      1505.0123      30052.411      29.306055      29.270142      35.034598      1.4113226      0            
   1496000   303.99721     -480839.29      85.466025     -480753.82      2006.9212      30052.411      29.306055      29.270142      35.034598      1.4113226      126.014      
   1497000   299.47604     -480837.83      84.194939     -480753.64     -1003.77        30052.411      29.306055      29.270142      35.034598      1.4113226      127.34596    
   1498000   302.77138     -480840.18      85.121393     -480755.06      2555.8008      30052.411      29.306055      29.270142      35.034598      1.4113226      127.59419    
   1499000   306.82181     -480837.68      86.260134     -480751.42      1206.9633      30052.411      29.306055      29.270142      35.034598      1.4113226      128.84294    
   1500000   296.66755     -480838.08      83.405357     -480754.67      1245.4413      30052.411      29.306055      29.270142      35.034598      1.4113226      128.44618    
   1501000   293.178       -480840.12      82.424302     -480757.69     -76.014447      30052.411      29.306055      29.270142      35.034598      1.4113226      127.54946    
   1502000   299.16586     -480841.22      84.107733     -480757.12      447.42594      30052.411      29.306055      29.270142      35.034598      1.4113226      129.59216    
   1503000   300.52031     -480836.85      84.488526     -480752.37      1660.6252      30052.411      29.306055      29.270142      35.034598      1.4113226      126.95599    
   1504000   302.05222     -480838.11      84.919209     -480753.19      1994.835       30052.411      29.306055      29.270142      35.034598      1.4113226      128.90268    
   1505000   293.673       -480836.76      82.563468     -480754.2      -1260.8128      30052.411      29.306055      29.270142      35.034598      1.4113226      116.91918    
   1506000   294.32722     -480837.18      82.747394     -480754.43     -1031.2111      30052.411      29.306055      29.270142      35.034598      1.4113226      109.67585    
   1507000   296.37349     -480839.01      83.322685     -480755.69      1979.5721      30052.411      29.306055      29.270142      35.034598      1.4113226      109.57925    
   1508000   306.05481     -480840.36      86.044498     -480754.32      3741.0862      30052.411      29.306055      29.270142      35.034598      1.4113226      108.84625    
   1509000   303.97915     -480837.27      85.460946     -480751.81     -97.342533      30052.411      29.306055      29.270142      35.034598      1.4113226      110.89994    
   1510000   301.16424     -480837.27      84.669559     -480752.6       730.52356      30052.411      29.306055      29.270142      35.034598      1.4113226      110.32654    
   1511000   303.00321     -480838.51      85.186568     -480753.32      650.32324      30052.411      29.306055      29.270142      35.034598      1.4113226      111.17432    
   1512000   297.3144      -480839.42      83.587213     -480755.84      1995.0935      30052.411      29.306055      29.270142      35.034598      1.4113226      109.64469    
   1513000   305.62964     -480840.76      85.924966     -480754.83     -563.85397      30052.411      29.306055      29.270142      35.034598      1.4113226      110.33987    
   1514000   302.83861     -480837.38      85.140293     -480752.24      1360.7974      30052.411      29.306055      29.270142      35.034598      1.4113226      110.26458    
   1515000   297.9701      -480840.71      83.771557     -480756.94      337.34261      30052.411      29.306055      29.270142      35.034598      1.4113226      109.27697    
   1516000   301.29471     -480836.99      84.706241     -480752.29      1351.8144      30052.411      29.306055      29.270142      35.034598      1.4113226      110.93453    
   1517000   299.65991     -480840.56      84.246631     -480756.32      2800.3802      30052.411      29.306055      29.270142      35.034598      1.4113226      109.42771    
   1518000   302.00888     -480836.3       84.907023     -480751.39     -583.67691      30052.411      29.306055      29.270142      35.034598      1.4113226      109.9585     
   1519000   301.92364     -480838.19      84.883058     -480753.3       987.89421      30052.411      29.306055      29.270142      35.034598      1.4113226      108.88161    
   1520000   292.54986     -480837.91      82.247707     -480755.67     -1636.6051      30052.411      29.306055      29.270142      35.034598      1.4113226      109.97007    
   1521000   299.05617     -480839.85      84.076897     -480755.77      2061.3427      30052.411      29.306055      29.270142      35.034598      1.4113226      109.57132    
   1522000   311.62748     -480837.2       87.611203     -480749.59      1265.4801      30052.411      29.306055      29.270142      35.034598      1.4113226      108.67826    
   1523000   295.31722     -480837.41      83.025725     -480754.38      1739.4483      30052.411      29.306055      29.270142      35.034598      1.4113226      110.19151    
   1524000   297.69464     -480840.52      83.694114     -480756.83     -844.00775      30052.411      29.306055      29.270142      35.034598      1.4113226      109.76937    
   1525000   302.64553     -480841.06      85.086011     -480755.97     -1172.0649      30052.411      29.306055      29.270142      35.034598      1.4113226      109.81881    
   1526000   293.26623     -480836.26      82.449108     -480753.81      1063.3987      30052.411      29.306055      29.270142      35.034598      1.4113226      109.43369    
   1527000   296.81128     -480836.97      83.445765     -480753.53      753.79928      30052.411      29.306055      29.270142      35.034598      1.4113226      109.40717    
   1528000   299.86611     -480840.73      84.304603     -480756.43      1763.7334      30052.411      29.306055      29.270142      35.034598      1.4113226      109.29054    
   1529000   299.33349     -480834.97      84.154861     -480750.82      1560.5291      30052.411      29.306055      29.270142      35.034598      1.4113226      108.50726    
   1530000   294.51959     -480838.3       82.801476     -480755.5      -276.06366      30052.411      29.306055      29.270142      35.034598      1.4113226      109.61692    
   1531000   299.12192     -480839.14      84.09538      -480755.04     -454.82656      30052.411      29.306055      29.270142      35.034598      1.4113226      109.97841    
   1532000   297.75052     -480839.55      83.709825     -480755.84      1366.938       30052.411      29.306055      29.270142      35.034598      1.4113226      109.38704    
   1533000   292.31791     -480837.66      82.182497     -480755.48     -502.6768       30052.411      29.306055      29.270142      35.034598      1.4113226      109.49379    
   1534000   304.35451     -480837.49      85.566474     -480751.92      855.45321      30052.411      29.306055      29.270142      35.034598      1.4113226      109.54042    
   1535000   303.60675     -480841.06      85.356249     -480755.7       2159.2287      30052.411      29.306055      29.270142      35.034598      1.4113226      110.52508    
   1536000   295.36989     -480838.83      83.04053      -480755.79     -1396.0752      30052.411      29.306055      29.270142      35.034598      1.4113226      108.20117    
   1537000   291.34127     -480840.77      81.907921     -480758.87      2472.787       30052.411      29.306055      29.270142      35.034598      1.4113226      109.27695    
   1538000   299.63797     -480835.49      84.240462     -480751.25      1122.4182      30052.411      29.306055      29.270142      35.034598      1.4113226      109.77238    
   1539000   298.82253     -480837.17      84.011209     -480753.16      1002.3782      30052.411      29.306055      29.270142      35.034598      1.4113226      109.10215    
   1540000   301.35771     -480839.38      84.723952     -480754.66     -666.55789      30052.411      29.306055      29.270142      35.034598      1.4113226      109.07711    
   1541000   301.37133     -480837.83      84.727781     -480753.11     -661.5819       30052.411      29.306055      29.270142      35.034598      1.4113226      110.89389    
   1542000   290.42785     -480839.66      81.651122     -480758.01      1440.6774      30052.411      29.306055      29.270142      35.034598      1.4113226      111.35964    
   1543000   306.1518      -480833.57      86.071768     -480747.5       1861.5304      30052.411      29.306055      29.270142      35.034598      1.4113226      109.10376    
   1544000   298.10914     -480839         83.810647     -480755.19      1869.2149      30052.411      29.306055      29.270142      35.034598      1.4113226      109.39583    
   1545000   302.03038     -480839.22      84.913068     -480754.3      -1657.9932      30052.411      29.306055      29.270142      35.034598      1.4113226      111.02132    
   1546000   309.39209     -480839.5       86.982744     -480752.51      1467.8938      30052.411      29.306055      29.270142      35.034598      1.4113226      114.04049    
   1547000   299.65223     -480837.79      84.244471     -480753.55      57.503267      30052.411      29.306055      29.270142      35.034598      1.4113226      114.25648    
   1548000   300.7187      -480838.13      84.544302     -480753.59      856.09568      30052.411      29.306055      29.270142      35.034598      1.4113226      119.02819    
   1549000   302.53478     -480835.99      85.054875     -480750.93      346.31744      30052.411      29.306055      29.270142      35.034598      1.4113226      127.97989    
   1550000   295.47609     -480838         83.070389     -480754.93      1531.298       30052.411      29.306055      29.270142      35.034598      1.4113226      130.46807    
   1551000   301.75673     -480838.09      84.836132     -480753.25      1972.169       30052.411      29.306055      29.270142      35.034598      1.4113226      124.68495    
   1552000   302.34225     -480839.62      85.000748     -480754.62      581.72595      30052.411      29.306055      29.270142      35.034598      1.4113226      128.18854    
   1553000   295.37756     -480840.69      83.042689     -480757.64     -558.82357      30052.411      29.306055      29.270142      35.034598      1.4113226      124.88711    
   1554000   295.53727     -480835.96      83.087589     -480752.87     -273.76858      30052.411      29.306055      29.270142      35.034598      1.4113226      124.33739    
   1555000   300.88915     -480839.24      84.592221     -480754.65      104.36799      30052.411      29.306055      29.270142      35.034598      1.4113226      127.16328    
   1556000   297.97532     -480838.35      83.773023     -480754.58      414.30063      30052.411      29.306055      29.270142      35.034598      1.4113226      125.03836    
   1557000   296.47966     -480838.48      83.352533     -480755.13      272.35812      30052.411      29.306055      29.270142      35.034598      1.4113226      125.48637    
   1558000   307.99696     -480838.63      86.590516     -480752.04      200.37258      30052.411      29.306055      29.270142      35.034598      1.4113226      113.31678    
   1559000   302.91378     -480836.98      85.161426     -480751.82      1112.1341      30052.411      29.306055      29.270142      35.034598      1.4113226      112.1941     
   1560000   291.28744     -480836         81.892788     -480754.11      102.00947      30052.411      29.306055      29.270142      35.034598      1.4113226      112.65452    
   1561000   292.804       -480839.35      82.319156     -480757.03      202.67561      30052.411      29.306055      29.270142      35.034598      1.4113226      106.32661    
   1562000   296.42828     -480838.13      83.338089     -480754.79     -2078.707       30052.411      29.306055      29.270142      35.034598      1.4113226      109.74256    
   1563000   298.91528     -480838.08      84.037286     -480754.04      464.37873      30052.411      29.306055      29.270142      35.034598      1.4113226      110.14265    
   1564000   302.34724     -480837.56      85.002149     -480752.56      837.68853      30052.411      29.306055      29.270142      35.034598      1.4113226      109.83451    
   1565000   295.07198     -480840.56      82.956777     -480757.61      117.01342      30052.411      29.306055      29.270142      35.034598      1.4113226      108.74741    
   1566000   306.94974     -480838.66      86.2961       -480752.36     -223.53212      30052.411      29.306055      29.270142      35.034598      1.4113226      110.39202    
   1567000   299.4616      -480839.85      84.190879     -480755.66      71.663793      30052.411      29.306055      29.270142      35.034598      1.4113226      109.30511    
   1568000   299.91832     -480840.31      84.319282     -480755.99      2359.1399      30052.411      29.306055      29.270142      35.034598      1.4113226      108.01242    
   1569000   308.88949     -480836.94      86.841444     -480750.1       1296.2684      30052.411      29.306055      29.270142      35.034598      1.4113226      109.25053    
   1570000   299.34376     -480840.51      84.157749     -480756.36     -335.248        30052.411      29.306055      29.270142      35.034598      1.4113226      109.40115    
   1571000   301.21224     -480838.49      84.683054     -480753.8      -627.06575      30052.411      29.306055      29.270142      35.034598      1.4113226      110.1798     
   1572000   294.69929     -480839.03      82.851998     -480756.18     -919.79822      30052.411      29.306055      29.270142      35.034598      1.4113226      112.52505    
   1573000   300.2284      -480838.37      84.406458     -480753.96      9.2253509      30052.411      29.306055      29.270142      35.034598      1.4113226      112.53385    
   1574000   295.10331     -480839.12      82.965586     -480756.15      198.49157      30052.411      29.306055      29.270142      35.034598      1.4113226      111.65208    
   1575000   302.63853     -480838.6       85.084043     -480753.52      481.7416       30052.411      29.306055      29.270142      35.034598      1.4113226      109.57032    
   1576000   293.02171     -480837.85      82.380363     -480755.47      1348.9687      30052.411      29.306055      29.270142      35.034598      1.4113226      113.12426    
   1577000   304.10339     -480837.79      85.495874     -480752.3       2048.1262      30052.411      29.306055      29.270142      35.034598      1.4113226      111.45259    
   1578000   294.63762     -480839.98      82.83466      -480757.14      154.18833      30052.411      29.306055      29.270142      35.034598      1.4113226      111.43143    
   1579000   304.41833     -480838.5       85.584418     -480752.92      260.72661      30052.411      29.306055      29.270142      35.034598      1.4113226      109.74843    
   1580000   292.73317     -480841         82.299243     -480758.7       2184.5604      30052.411      29.306055      29.270142      35.034598      1.4113226      111.56959    
   1581000   291.95269     -480838.88      82.079816     -480756.8       834.86328      30052.411      29.306055      29.270142      35.034598      1.4113226      110.78607    
   1582000   297.78345     -480837.88      83.719081     -480754.16     -438.91156      30052.411      29.306055      29.270142      35.034598      1.4113226      109.30137    
   1583000   298.53867     -480840.53      83.931405     -480756.6      -515.02625      30052.411      29.306055      29.270142      35.034598      1.4113226      112.41099    
   1584000   300.86982     -480841.13      84.586786     -480756.54     -377.60382      30052.411      29.306055      29.270142      35.034598      1.4113226      111.88707    
   1585000   307.69881     -480838.43      86.506695     -480751.93      2677.8678      30052.411      29.306055      29.270142      35.034598      1.4113226      112.23447    
   1586000   298.43713     -480839.41      83.902859     -480755.51     -507.43376      30052.411      29.306055      29.270142      35.034598      1.4113226      110.89898    
   1587000   300.80097     -480838.24      84.56743      -480753.67     -13.098892      30052.411      29.306055      29.270142      35.034598      1.4113226      112.68075    
   1588000   299.06901     -480836.66      84.080504     -480752.58     -585.77106      30052.411      29.306055      29.270142      35.034598      1.4113226      111.78712    
   1589000   299.12962     -480838.51      84.097545     -480754.41      1892.8069      30052.411      29.306055      29.270142      35.034598      1.4113226      112.07171    
   1590000   304.35498     -480838.49      85.566609     -480752.93     -959.93586      30052.411      29.306055      29.270142      35.034598      1.4113226      110.08187    
   1591000   304.67935     -480840.01      85.657802     -480754.35      2361.8503      30052.411      29.306055      29.270142      35.034598      1.4113226      111.6431     
   1592000   314.05119     -480839.13      88.292607     -480750.83     -1277.9482      30052.411      29.306055      29.270142      35.034598      1.4113226      110.02172    
   1593000   307.21143     -480839.89      86.369673     -480753.52      1390.8782      30052.411      29.306055      29.270142      35.034598      1.4113226      109.84274    
   1594000   294.99843     -480835.19      82.9361       -480752.25     -1006.3856      30052.411      29.306055      29.270142      35.034598      1.4113226      110.28396    
   1595000   299.63653     -480835.93      84.240058     -480751.69      1455.1372      30052.411      29.306055      29.270142      35.034598      1.4113226      110.75762    
Loop time of 883.605 on 1 procs for 100000 steps with 2176 atoms

Performance: 2.445 ns/day, 9.818 hours/ns, 113.173 timesteps/s
107.3% CPU use with 1 MPI tasks x 1 OpenMP threads

MPI task timing breakdown:
Section |  min time  |  avg time  |  max time  |%varavg| %total
---------------------------------------------------------------
Pair    | 851.29     | 851.29     | 851.29     |   0.0 | 96.34
Neigh   | 21.402     | 21.402     | 21.402     |   0.0 |  2.42
Comm    | 3.4764     | 3.4764     | 3.4764     |   0.0 |  0.39
Output  | 0.50646    | 0.50646    | 0.50646    |   0.0 |  0.06
Modify  | 5.3541     | 5.3541     | 5.3541     |   0.0 |  0.61
Other   |            | 1.575      |            |       |  0.18

Nlocal:           2176 ave        2176 max        2176 min
Histogram: 1 0 0 0 0 0 0 0 0 0
Nghost:           4452 ave        4452 max        4452 min
Histogram: 1 0 0 0 0 0 0 0 0 0
Neighs:              0 ave           0 max           0 min
Histogram: 1 0 0 0 0 0 0 0 0 0
FullNghs:       228142 ave      228142 max      228142 min
Histogram: 1 0 0 0 0 0 0 0 0 0

Total # of neighbors = 228142
Ave neighs/atom = 104.84467
Neighbor list builds = 2609
Dangerous builds = 0
unfix	1
undump	1

Total wall time: 4:03:31
