LAMMPS data file via write_data, version 23 Jun 2022, timestep = 485000

2176 atoms
4 atom types

-0.0650939866742597 30.911293986672877 xlo xhi
-0.06501421824748377 30.873414215958796 ylo yhi
-0.07781810506850917 36.953618085965545 zlo zhi

Masses

1 12.0107
2 1.00794
3 14.0067
4 65.40900000000001

Atoms # atomic

1109 1 1.6401944950797507 1.9149116858373298 2.414617796539776 1 0 0
1305 3 0.24123683758922815 3.4005297337135874 1.4904137404361706 1 0 0
1302 3 2.5969519182864764 2.9996651514716506 2.056746120773366 1 0 0
1135 1 0.2929423205477676 2.104269810571039 1.992639022859414 1 0 0
1188 2 1.936712935574962 0.9425256738299697 2.8130360515859794 1 0 0
1226 2 30.594233406293295 1.3778593740891945 2.2487264993525042 0 0 0
1123 1 1.6653601811684544 3.878123125770342 1.4825543870299795 1 0 0
649 2 10.108884165963442 28.651833690053767 0.3915162381688546 0 0 0
47 1 14.361684219029076 3.1495623093570333 0.19023008088338383 0 0 0
138 2 13.556422362431837 3.2746085378177554 1.009505678617003 0 0 0
104 2 14.939236755942588 1.5569961518475848 2.9318850877696954 0 0 0
1126 1 17.959275937618074 0.6098948639393269 2.1028555385454615 0 0 0
1303 3 18.33067888803991 1.978606322667885 2.1801295426879235 0 0 0
1189 2 17.235235876934297 0.14923860368228858 1.5679006988657043 0 0 0
1129 1 19.2738882598918 2.02950771833815 3.144624388954127 0 0 0
1187 2 19.582677392262287 2.922850806547346 3.2686033327463755 0 0 0
261 4 17.01566238855723 3.592194080431214 1.9899266883556104 0 0 0
1682 1 19.789522330707573 0.8195322775179102 3.3373520729599977 0 1 0
1197 2 22.244406393373236 2.497699692571175 3.0889175229836607 0 0 0
1231 2 19.466877236463134 4.550561848425093 0.7608123178355528 0 0 0
1174 1 24.11197834590519 2.6198764565209958 4.052206178823129 0 0 0
1121 1 23.094490824171782 3.168541378100009 3.3322291781185704 0 0 0
2074 2 25.310715854425023 30.136313055775645 2.8433013448648525 0 0 1
2081 2 29.199119089666347 0.6024722705438156 36.76584118005675 0 1 0
987 2 27.570747591331962 0.06736394379485589 0.9877380009984533 -1 1 1
1194 2 1.9315106143645315 5.143894711286051 1.366235210239538 1 0 0
1192 2 4.575858502969324 7.1068418307853305 2.2449453083531385 1 0 0
1623 4 30.292986868568594 3.657223631795193 36.844501304183886 0 0 0
30 1 6.9244849204388395 3.6971297925458875 2.4212089075275545 0 0 0
84 1 7.821446218521204 4.461970366771671 1.7672172634122771 0 0 0
32 1 5.96656919501545 4.3877196037931885 0.579802258681522 0 0 0
223 3 5.627459449334093 3.6956161151274824 1.765145095770715 0 0 0
221 3 7.254749785521096 5.007497912560734 0.5634462221997492 0 0 0
143 2 5.268537565936796 4.969987352538208 0.0863157007821469 0 0 0
153 2 7.15236062521685 3.194850211965163 3.3079246039503363 0 0 0
1227 2 9.115533357242475 4.761111409837024 2.060962428673192 1 0 0
217 3 15.708363817676101 3.052091084502081 0.5649076308545903 0 0 0
1309 3 18.37040771325182 5.373837322118871 2.215816880716509 0 0 0
1172 1 18.62696347941044 5.967213040137328 3.3797687816757764 0 0 0
1120 1 19.568262957227795 4.956667658400251 1.738431504989186 0 0 0
1118 1 20.07233822812603 6.1063984609551305 3.464736866398147 0 0 0
1311 3 20.500743967937517 5.3225030822149115 2.517722758111264 0 0 0
1350 4 22.556476547452725 5.565735596890411 1.650874451111321 0 0 0
1241 2 20.54309243092981 6.4276065223641154 4.347239975706891 0 0 0
1327 3 25.361590096772268 3.2856687347672167 3.8664789592849633 0 0 0
1306 3 23.65648527469446 4.3443136314193715 2.80659266340855 0 0 0
1122 1 24.951642611281475 4.332819021216566 3.0904789741557845 0 0 0
1195 2 25.491707265557878 5.272484783312617 3.01197884798029 0 0 0
1532 2 28.460427588127658 6.35297634009192 0.13136632647014249 0 0 1
1438 1 28.001995286549878 5.4508408080030515 36.579536566737275 0 0 0
228 3 6.605374585239984 10.004106049947975 2.500619238224612 0 0 0
183 2 6.6970775892303624 7.873652663025279 2.1431813104397315 0 0 0
45 1 6.624762699964757 8.713124201524936 2.8148596163993775 0 0 0
257 4 6.37889445564374 10.969337999278169 0.6517948138744794 0 0 0
146 2 3.706600562508801 11.656200415300209 2.4905678077878637 0 0 0
87 1 6.851772024561449 10.679592151301849 3.6043361203346382 0 0 0
182 2 6.4416674690717555 8.42975971583951 0.5194852336232011 0 0 0
1307 3 22.577048284324338 7.691751776196677 1.7774122387214788 0 0 0
1131 1 22.552409324232812 8.314548267565423 3.0146800920133767 0 0 0
1130 1 21.744909919762417 9.720926408809637 1.5648268241800296 0 0 0
1317 3 22.11532454041425 9.59385094227834 2.9062886365991125 0 0 0
1119 1 22.377072071306078 8.666161136157035 0.8556078895943625 0 0 0
1270 2 23.27180829379509 7.8754941878235085 3.7773268072583766 0 0 0
1271 2 25.848552138394965 10.304919041681892 3.7245604651608097 0 0 0
461 2 29.87472982897999 9.743973568833823 1.6656167044384549 -1 0 1
476 3 -0.04960239128289601 11.297243130479522 0.46465700233988483 0 0 1
496 3 0.6992534467620408 12.374273476569293 2.336133519221576 0 0 1
447 2 1.2581577777001633 13.059679266059053 0.3412142158820433 0 0 1
345 1 0.6110673679450009 12.456446255573947 0.9425528956952434 0 0 1
264 4 1.7492538587449558 13.808944408953757 3.124160298149499 0 0 0
232 3 3.6508953895198166 13.740103664180317 1.8883531456699771 0 0 0
54 1 4.15071296282339 14.648529571612178 1.0399638149536137 0 0 0
145 2 3.653218142513015 15.500964437320873 0.5892137758806979 0 0 0
29 1 4.303787885675195 12.601270772535518 1.9855732459486832 0 0 0
256 3 5.474645252861101 12.680665518596092 1.3415041152917402 0 0 0
103 2 6.970733039136217 11.847019618869885 3.6367103559951266 0 0 0
178 2 8.28225769919547 13.942133936189858 0.5548985860978504 0 0 0
1426 1 16.040713344622826 10.99500314825115 0.6146614629318797 0 0 1
1552 2 15.698625435821414 10.201157129736718 2.5291263112675213 0 0 1
1400 1 16.068759478259388 11.01648437026287 1.9857091572140155 0 0 1
1433 1 16.273297795660376 13.08616796080375 1.262598661147285 0 0 1
1584 3 16.2082519235919 12.445984559704385 2.39337093051499 0 0 1
1234 2 19.836704950296895 12.162302376102165 3.6949130265128 0 0 0
1117 1 20.30447988769099 12.851400445122986 4.3665093344101455 0 0 0
1266 2 22.376764044985546 14.400015116428726 2.295695358747214 0 0 0
1345 4 22.665387338685665 11.09801749500115 3.862819438208569 0 0 0
1127 1 22.911029964592572 13.738824112648437 1.609818164273015 0 0 0
1315 3 23.324523486938634 12.471260267320849 1.8385740481491393 0 0 0
1272 2 23.9267737414268 10.859317925294329 0.483093971901155 0 0 0
1134 1 23.598827073630066 11.87857190902559 0.6132683775414705 0 0 0
312 1 -0.03340809592304602 11.230248995539622 2.7322900440420366 0 0 1
464 2 0.04562801608527341 10.863840801749605 3.8085262077638937 0 0 1
338 1 30.374116004623865 10.695723226763013 1.5887208538759396 -1 0 1
645 2 2.530576607686361 17.101632570166345 3.2247740413141828 0 0 0
582 1 1.526103925385538 17.011366426508722 2.9718790638433084 0 0 0
759 3 0.5408369275519852 17.962218401651747 2.5488798185289325 0 0 0
225 3 0.9358755376222168 15.823641221212574 3.3190056110559283 0 0 0
576 1 3.818934013742986 20.618270045099674 2.128732454894035 0 0 0
944 2 9.473042359093526 20.837569052123655 2.1769208500434054 0 0 1
860 1 9.107310590703628 20.37279808094178 1.2186103058361502 0 0 1
953 2 10.52561651936019 20.105264695278876 36.650602935165985 0 0 0
867 1 9.667570739013996 19.89904137908223 0.013246507542542613 0 0 1
1057 3 8.579067924114678 19.69667005976629 36.24902451278767 0 0 0
1274 2 15.23290230180784 16.113668387675887 6.719445874306924 0 0 0
650 2 15.689579500597764 18.475774874409524 1.0292877247795515 0 0 0
1535 2 17.006770878892333 14.07108622551595 1.067279282533543 0 0 1
1138 1 19.24152552850074 18.38504604445183 2.839194802770149 0 0 0
1313 3 17.890863368721458 18.78619326535872 2.7762726875590067 0 0 0
1673 1 19.24104149390246 16.94558069780825 2.7007741762442077 0 0 0
1253 2 20.094835454219663 18.835878197555875 2.552896652321038 0 0 0
1731 2 19.796637605556395 16.390521701360996 1.9931104692712291 0 0 0
2032 2 21.060630954683464 19.438532704154166 1.3244074935631889 0 0 1
1679 1 28.717974698507977 20.18279831115261 35.896620179665824 0 0 -1
1770 2 28.139387367218838 20.6528559053369 34.992661023595865 0 0 -1
1732 2 29.35810213130297 21.641430553448025 0.48320185532732884 0 0 0
765 3 2.946733482457597 19.706622187416222 1.617989797648063 0 0 0
1893 4 1.0002831260165053 20.037024147588607 1.4596272230149252 1 0 0
1736 2 0.15500212087791343 23.498409391835423 1.9959437070881711 1 0 0
1848 3 0.70867828385402 21.347925501395206 2.7985248711264448 1 0 0
1668 1 0.3186313964061973 22.76174897608117 2.872663274765186 1 0 0
628 1 3.69528895933947 18.601782975975308 1.3470154352487858 0 0 0
574 1 4.849761071464859 18.763547219401573 1.9865253415223552 0 0 0
767 3 4.826533616541849 20.06209345420281 2.5227600388500493 0 0 0
806 4 6.7230754522847365 20.450039180115745 2.9066488561445065 0 0 0
697 2 5.901751337436362 18.147478763293158 1.8892041970850644 0 0 0
687 2 3.545337215259568 21.680160545928754 2.2785416796320628 0 0 0
1036 3 7.656686176114729 20.219375686672894 1.1728483097143316 0 0 1
893 1 7.409944118585505 19.83293095434388 36.881663599852104 0 0 0
924 2 6.3597794067197695 19.944233139993944 36.42768237324433 0 0 0
579 1 15.645895518435282 19.448070843037154 0.5213791758237438 0 0 0
761 3 15.687698276167389 20.607368483734696 1.1751298366322445 0 0 0
805 4 16.81984652266146 20.54860698263531 2.7487146209481637 0 0 0
1853 3 18.35038673271551 21.99086523726656 2.8882804266302706 0 0 0
1716 1 18.159241413896414 23.28049090896648 2.5727266944588916 0 0 0
1664 1 19.642948191456625 21.75237731332694 2.4542062706632732 0 0 0
1775 2 20.19731675076177 21.040176246607338 2.9819111404581458 0 0 0
1894 4 22.00389868894811 22.34994214912299 1.0308815633452195 0 0 0
1855 3 20.278794470680776 22.866221149885803 1.8568092151218276 0 0 0
1948 1 21.564825154334706 19.68906004599764 0.4579940625705955 0 0 1
2124 3 21.717264102968194 20.96101694506048 36.81248470568703 0 0 0
1850 3 22.683141765902217 21.48479406809838 2.6197338877817162 0 0 0
1741 2 24.45846899550207 21.028991481830296 1.3206947096911497 0 0 0
1665 1 24.01105397796072 21.035794864243968 2.2696806926565287 0 0 0
1653 1 29.491772754823945 20.8434517979246 36.888641852670744 0 0 -1
1846 3 30.42808012142466 19.82040461199197 0.29420125462326474 0 0 0
598 1 3.5339537371738894 26.695500555108396 35.309514138913926 0 0 -1
776 3 2.5283089548544195 27.267548854719582 35.97783493032094 0 0 -1
689 2 4.5944064433215575 26.67117828445791 35.54340463228437 0 0 -1
683 2 17.250233578812686 23.755184193292745 2.6298466233421087 0 0 0
1662 1 19.29819841417145 23.785220967121003 1.8431652704862522 0 0 0
1785 2 19.245026198210546 24.709642108201066 1.2561433734924365 0 0 0
1851 3 23.36677517005945 23.4994309863324 36.86064874133001 0 0 -1
1675 1 24.020626023865805 24.237444511553495 0.6901616335051248 0 0 0
1814 2 24.98754255375163 24.003306238373987 1.1438998207279782 0 0 0
1861 3 24.102178329043095 25.59940443221043 0.48395482212504604 0 0 0
1674 1 23.06821745100495 25.75538728392771 36.5130254259918 0 0 -1
1005 2 30.714990990146173 25.968579345319885 0.8356276416351616 -1 0 1
1008 2 30.303436279870475 25.62678922608938 3.6539703486614856 -1 0 1
770 3 1.9852397835062927 27.704617888028352 2.7933240473299246 0 0 0
991 2 29.342665007567472 29.52201269871699 2.386287688919848 -1 0 1
730 2 0.8333416850662169 29.503772427342977 2.739192324500002 0 0 0
38 1 5.289192013361005 29.17581020597682 2.308545031000973 0 -1 0
769 3 4.757699685070005 28.10201305751407 1.5421431169523594 0 0 0
808 4 2.7510284840064303 27.70137129767929 1.1072769567647205 0 0 0
594 1 5.70749736092085 27.287460669224565 1.033765013740516 0 0 0
101 2 4.566658973971504 29.833898410196852 2.7575672029086706 0 -1 0
215 3 6.632044498892529 29.01419659139526 2.3058208211543882 0 -1 0
41 1 6.939812521455377 27.99596993666981 1.4780374461807761 0 -1 0
741 3 10.273340968966192 29.532178887502948 2.483203388936124 0 0 0
567 1 10.781499808321133 29.192319585620044 1.1334068610855144 0 0 0
568 1 12.075302249473767 28.92317237023494 1.1926381805380117 0 0 0
1742 2 12.557042014553844 28.505856004871916 0.3528295148279231 0 0 0
1970 1 15.769919598316212 26.715610569331467 0.04209054488436591 0 0 1
2093 2 15.2258074367211 25.76599508772197 0.05299022465129766 0 0 1
2096 2 17.288167704541316 26.45731038061389 1.9152222409421495 0 0 1
1857 3 18.877607333735156 -0.03842953552531725 2.640538957126889 0 1 0
2128 3 16.97212698389281 28.21642372115623 1.2336535089958431 0 0 1
1944 1 16.615340806382402 26.904533878440333 1.1644296693349179 0 0 1
1896 4 18.57334753217235 28.795681870447986 2.5976211139834042 0 0 0
1977 1 16.42177236186525 28.763427991702788 0.059844682413716516 0 0 1
1778 2 21.025336328109606 26.9086011163961 1.629213904877631 0 0 0
1661 1 21.0859876096649 27.661221107172924 2.478003417640407 0 0 0
1864 3 20.069749675459907 28.079862417511013 3.3522146630401686 0 0 0
1889 4 24.30942242673086 26.772760826384776 2.313515042060159 0 0 0
1905 1 25.9199147640797 28.196411346226025 0.4965858432455511 0 0 1
2113 3 25.457135150555985 28.325786012575495 1.7327572784937328 0 0 1
1985 1 25.85318814417202 29.594597013701904 2.058463674811293 0 0 1
1983 1 26.774765646063653 30.132714695095544 1.2122735301970642 0 0 1
2112 3 26.68062829223542 29.14526841519331 0.17856676723564036 0 0 1
1256 2 27.38185165968469 0.44153732968352954 3.6785943325456123 0 0 0
882 1 29.938361737908718 26.468176575020276 1.4687004665365766 -1 0 1
856 1 29.99756964641745 26.33242296283909 2.8727954406191722 -1 0 1
1020 3 29.620634167971197 27.748620572158423 0.9974698951348167 -1 0 1
889 1 29.443869530855057 28.416886791419714 2.2387383684565956 -1 0 1
1040 3 29.69270214570406 27.617237498601714 3.301961244472256 -1 0 1
109 2 4.2250133689472475 1.3591696469937227 5.434657578527588 0 0 0
218 3 5.048751623350925 3.4488927403655665 4.8711803227639106 0 0 0
33 1 4.595617988240852 2.347018474756969 5.84404288402452 0 0 0
86 1 5.152775829161978 2.783786339486632 7.027631650714841 0 0 0
34 1 5.805740016098227 4.226611149219976 5.701583112061152 0 0 0
240 3 7.876884230780459 1.134415102391443 6.556617531587047 0 0 0
92 1 8.35193291521927 0.9163748090303541 5.288437170664422 0 0 0
168 2 8.339852281121019 1.7256800787677473 4.602409588124288 0 0 0
97 2 10.927938175234068 3.168171748879816 8.42360188077673 0 0 0
93 1 13.625608458276247 2.810050775888085 4.288275732924677 0 0 0
148 2 12.560557103351266 2.0365265324230424 4.595792461883387 0 0 0
36 1 14.64868097373662 2.391962297916149 3.6318706421171356 0 0 0
216 3 15.490364597241463 3.4629511127611075 3.677115849764813 0 0 0
1797 2 20.343781427128395 0.2812849051665932 3.9609145795535285 0 1 0
164 2 18.819827100990334 1.767091161577884 7.090278334404136 0 0 0
1267 2 24.107057623097383 1.8196698785228447 4.786615206140867 0 0 0
1355 4 27.015984325069144 3.018397127764384 5.111932050190273 0 0 0
1340 3 26.408172746027162 1.7745196505764655 6.564717591049277 0 0 0
1177 1 26.00116592829151 2.357929592014833 7.6995727388281905 0 0 0
1094 1 25.662447516629985 0.693846599895863 6.356414361180896 0 0 0
1328 3 28.490337360835905 1.9491528921853636 5.013195659994629 0 0 0
1279 2 29.994225071861344 3.0261882913229656 5.67820291442682 0 0 0
1180 1 28.35172022111157 0.6584300849828402 4.354744010264327 0 0 0
1184 1 29.73010729299982 2.031929400074452 5.489042288428421 0 0 0
1657 1 30.379721688666827 0.6899262381790536 5.275572005254498 0 1 0
1744 2 0.4118572878425904 0.08162752216234623 5.539025379754951 1 1 0
1124 1 3.807661205004022 6.9484610115751755 2.945534679557299 1 0 0
1181 1 2.8196396946230826 7.85168103977778 3.244653255393761 1 0 0
1304 3 3.5160451792177216 5.812347580261116 3.7597075423055006 1 0 0
1235 2 1.7845664549405418 5.306955829639319 4.806406778660995 1 0 0
1179 1 2.254266641121224 5.949102141537854 4.260922103562095 1 0 0
1325 3 1.9494075852074233 7.274297141905112 4.104038573991031 1 0 0
1349 4 4.170371813162877 3.8765235013224864 3.161986773169503 1 0 0
107 2 6.4108627399690725 5.105492043646059 5.543305597851104 0 0 0
149 2 8.163105197681308 5.90649336103797 7.281805100838918 0 0 0
236 3 9.262001238975754 4.214841179751487 7.683635628867513 0 0 0
88 1 9.221015236472644 5.490814852919811 7.2809786115308395 0 0 0
90 1 10.547570056354951 3.8164294379110393 7.629518465276204 0 0 0
83 1 10.547688333000789 6.045976830751467 7.052446380264185 0 0 0
203 3 11.377049681100504 4.859361400578826 7.314229287648218 0 0 0
150 2 12.867941715121095 6.801050995709788 3.670607713820791 0 0 0
91 1 15.049076902969801 4.5212401552603145 4.463684429582913 0 0 0
237 3 13.663362038522527 4.136024463934296 4.727225794795217 0 0 0
268 4 13.129615825976972 4.979742760169983 6.451436260397484 0 0 0
139 2 17.93114843275835 6.646271946349152 3.8072867412421894 0 0 0
147 2 15.215220584585508 5.565638261861378 4.530419084781644 0 0 0
1238 2 27.281717810050946 4.864923830122223 7.469495101385741 0 0 0
1242 2 28.579284348048205 5.447777931183576 3.5465665913436584 0 0 0
1343 3 27.868957930490158 4.92134862349654 5.346402716221857 0 0 0
1173 1 28.105350012907195 5.082793642438635 6.736739292594559 0 0 0
1147 1 28.890604941712343 5.45034289575139 4.596824178750015 0 0 0
1170 1 29.454052518275454 5.921676071331687 6.671598449590399 0 0 0
1299 3 29.604760768127633 6.197006483978311 5.365511538147142 0 0 0
1356 4 0.21381552213870303 7.347378336337947 5.151269020361683 1 0 0
1236 2 2.567964808834169 8.776864165674933 2.856811440886424 1 0 0
1291 3 30.55068078568139 9.795518972399812 8.4479254844201 0 0 0
1178 1 0.33717650073368904 8.748436804177398 7.8528981804101665 1 0 0
115 2 5.1525810192672505 8.690116459363693 6.762465876598565 0 0 0
55 1 6.853563821093351 8.55197629032454 4.153968472430001 0 0 0
195 3 6.8963273225514055 9.819286008237272 4.72627575963636 0 0 0
129 2 6.76189498101529 7.603960316339131 4.543389473428436 0 0 0
258 4 7.684262536184117 10.78929825429406 6.4665509186126915 0 0 0
120 2 11.177619585268241 6.839776182795945 6.560109651277068 0 0 0
197 3 9.481054677624128 10.611352895624968 5.982089662607261 0 0 0
23 1 9.993648541143278 10.828078080951661 4.572020162235432 0 0 0
105 2 9.37415427712461 10.80812544930774 3.4968460213813426 0 0 0
255 3 13.462529701297857 7.006875451908173 5.76926732185572 0 0 0
85 1 13.288213240911938 7.407408161541231 4.365192440060699 0 0 0
82 1 13.148711357212663 8.804422911759108 4.461405790846226 0 0 0
59 1 13.472553494349233 8.085886892192661 6.5537778901399655 0 0 0
211 3 13.377547868156737 9.258143781643664 5.887450674488621 0 0 0
152 2 13.015194875134197 9.505688545797888 3.741833121364438 0 0 0
1191 2 23.32488005750345 10.623147997060823 7.279354217705657 0 0 0
1133 1 25.452901440869084 10.44160425717682 4.926179553499262 0 0 0
1143 1 26.222898470212975 10.985036693045139 6.013320776517136 0 0 0
1217 2 27.125902968418735 11.290478575060613 6.342695182129327 0 0 0
1283 3 25.452903693576346 10.916654543391303 7.173904016755681 0 0 0
1316 3 24.0700174934598 10.55533211432164 5.3536804620106535 0 0 0
1175 1 24.168055491648374 10.851515281930627 6.677529946437055 0 0 0
1324 3 30.75062117150177 8.479904886486024 6.556323614146409 0 0 0
1237 2 29.222046633207242 9.478225858698533 5.341259508272288 0 0 0
1176 1 29.84788577297754 9.545986864408707 6.22693476206693 0 0 0
1171 1 29.923185884370376 10.388013815319209 7.3634561487380195 0 0 0
185 2 30.81615154125103 12.528274916810247 5.63291533411019 -1 0 0
226 3 1.9476620201438757 13.244525902805462 5.059881868223824 0 0 0
48 1 0.8045650170055753 13.033623701609848 5.808824966822481 0 0 0
49 1 2.8138998643987385 13.990884576732018 5.7790855004581445 0 0 0
112 2 8.488538275460867 13.545308170029159 5.95761075657841 0 0 0
25 1 7.8271233064835 13.743209348154844 6.79992417122447 0 0 0
24 1 11.327704105486982 11.419059881357756 4.6476677774029875 0 0 0
1198 2 11.991972661568122 11.702223132435625 3.8707264424937473 0 0 0
198 3 11.612338827614538 11.461908200350875 6.124667252896587 0 0 0
1219 2 13.484921171621233 14.152880240666548 7.543338538468056 0 0 0
1137 1 15.235219039048427 15.067626393796694 6.515837757751069 0 0 0
1359 4 13.753886267538016 11.129934661993344 6.6565687633205295 0 0 0
1183 1 14.308082921039919 14.11289621510643 6.881177434536993 0 0 0
1290 3 14.83228509577839 12.936910144937961 6.3032866809896575 0 0 0
1136 1 15.89216803033028 13.363116536460542 5.486994183733811 0 0 0
1352 4 17.697757161657663 14.90972462081595 4.466226810830013 0 0 0
1273 2 16.66209895301542 12.635686629826438 4.975151957778863 0 0 0
1314 3 16.279527906586143 14.583129884959272 5.767154592539671 0 0 0
1232 2 23.16102006313734 14.551913777200932 4.768956106541154 0 0 0
1142 1 20.958248324007958 15.168783746733418 4.856191209331767 0 0 0
1140 1 22.016900260099057 14.275963936303542 4.911933937117033 0 0 0
1320 3 19.795793979456175 14.153586706983287 4.6620380550289555 0 0 0
1344 3 21.631742578978766 12.958195266529003 4.550272752002986 0 0 0
1233 2 20.743722644022224 16.115674466433873 5.161275279161362 0 0 0
1208 2 29.33465173908009 11.324224453586247 7.364957251196452 0 0 0
165 2 29.890138007162527 15.058315063359066 3.643640038371249 -1 0 0
186 2 3.881398613792835 14.213402250859891 5.518986468811885 0 0 0
585 1 30.41214169551185 17.228273581871424 2.7096837270863636 -1 0 0
50 1 30.525471226265342 15.842109659999071 3.129750997624606 -1 0 0
653 2 8.65190414168095 19.769765904192997 8.506874018675111 0 0 0
735 2 9.106386200853537 13.890478344134904 8.722361103268334 0 0 0
1847 3 17.963139845513833 16.464528408762266 2.938227391835949 0 0 0
1670 1 17.23649351261883 17.65238939406864 2.9960126261986932 0 0 0
1733 2 16.18887120850221 17.62077694090198 2.8948742601017243 0 0 0
1113 1 20.75340946851414 17.840414505214262 6.0969861426088965 0 0 0
1200 2 19.66817266091979 17.558158326855594 5.763719233555564 0 0 0
1288 3 21.25471311467947 17.756597624434015 7.418891856350878 0 0 0
1724 1 22.438148328448367 18.429563854673574 7.267182330819742 0 0 0
1800 2 22.919621424313142 18.869585296607248 8.100370937938521 0 0 0
643 2 29.418897697532472 17.682026385992042 2.5604867589385405 -1 0 0
1779 2 1.4958664536113475 20.2987369936191 4.739017766902431 1 0 0
1723 1 0.678684362087811 20.948535539862934 4.12842333506098 1 0 0
1869 3 0.07547595150694963 21.797190083172094 5.032143419324746 1 0 0
1725 1 -0.03122439391468025 22.984811229717558 4.2109062523009 1 0 0
1868 3 2.3673739161509633 22.423890123183863 7.2944691132479305 1 0 0
726 2 5.870183875160249 20.622291279040756 5.440675395695529 0 0 0
587 1 6.926740209975792 20.461827987201662 5.4937415932711104 0 0 0
763 3 7.709884799234265 20.085200008092077 4.344073963507262 0 0 0
773 3 7.5880418284841245 21.08225630067223 6.581570078247836 0 0 0
575 1 9.056659220765521 20.35232617551172 4.793142206003557 0 0 0
655 2 9.842197071130355 19.76002255115679 4.410523422151112 0 0 0
586 1 8.983503015675566 20.90534809472946 6.10978671932615 0 0 0
725 2 9.918603246586352 21.330766307121905 6.809213506340144 0 0 0
691 2 13.65241800589814 22.068409223427444 4.0554011175273725 0 0 0
781 3 14.714056762872369 22.96726807941951 5.714046490471629 0 0 0
635 1 14.72675011840709 22.181749993141032 4.532226872107151 0 0 0
812 4 13.271921349211896 23.587870641130547 7.138599336129823 0 0 0
648 2 17.681539551414044 21.842617692940376 5.551816841422893 0 0 0
580 1 16.701031004739534 22.01267243089143 5.339183384313724 0 0 0
760 3 15.795995164618121 21.48561280583629 4.394393983266377 0 0 0
637 1 15.971955417700599 22.846188186843886 6.12777744266567 0 0 0
1739 2 21.65621610192439 22.50314914439504 4.464138833931213 0 0 0
1728 1 21.677692240794958 18.67415596717191 5.366773548489578 0 0 0
1872 3 22.722375913384177 19.114588175407057 6.189147257368539 0 0 0
1823 2 21.781063842631266 18.946664352792357 4.280629155388859 0 0 0
1666 1 22.518463354633855 21.812826455714692 3.9816734790043835 0 0 0
1718 1 24.490215680282823 20.74561024158217 3.545283654640921 0 0 0
1811 2 25.7032275215746 20.391387669846438 3.814722186681338 0 0 0
1871 3 23.681434151944032 21.444181960945745 4.543132056923633 0 0 0
1899 4 24.257356736252824 20.322334957629558 6.354728555741512 0 0 0
1717 1 27.54559089227399 20.53330329113267 7.045299412753944 0 0 0
1782 2 28.07516360226759 19.558390914971454 7.034271179014894 0 0 0
1714 1 28.157368851893274 21.731876696243752 7.453604362411797 0 0 0
1784 2 29.12774125100093 21.693097319874408 7.739044977202362 0 0 0
1780 2 30.537673070449433 23.90976268025948 4.615153446322112 0 0 0
1720 1 2.4988117209174434 23.773492486422555 7.0673219508138105 1 0 0
1781 2 1.5019943855706874 24.07843068233733 6.52635690865264 1 0 0
654 2 1.0824829453462246 26.913945185838354 5.748682735077678 0 0 0
729 2 3.4749981151166773 26.23390844028166 3.2609731236350523 0 0 0
1715 1 3.8116592954847395 24.16504654294883 7.143191874076203 1 0 0
1752 2 4.184904708378828 25.187459826286567 6.726667648157722 1 0 0
727 2 6.59161781343075 25.61759242773342 8.949226442476172 0 0 0
589 1 6.724888093375627 25.934796284639415 7.960858861129772 0 0 0
673 2 6.092552532695723 28.03558498831954 7.071967817936743 0 0 0
599 1 6.429444100462345 26.91979389698425 7.088125539324333 0 0 0
693 2 11.998887794477488 23.38951330321282 4.256122822214169 0 0 0
664 2 13.18426244339088 25.245166836346506 2.2429965651099946 0 0 0
627 1 12.717831591668379 25.274299901804863 3.3175553223909433 0 0 0
632 1 12.312135549806019 24.33177398386117 4.271331838748443 0 0 0
739 3 6.701149664116444 26.525078460357566 5.665586766604574 0 0 0
780 3 12.369056037767693 24.769898621265884 5.628638631641129 0 0 0
747 3 13.008826718558144 26.34078210971999 4.142581480374285 0 0 0
634 1 12.688786422218529 26.09281566977032 5.449019846225288 0 0 0
641 2 13.137012656782089 26.913051274369035 5.90748083484324 0 0 0
1817 2 15.835728053617311 26.679917778612545 5.1982356685687465 0 0 0
1761 2 24.12058965919781 24.57764384066936 3.203098561336354 0 0 0
1777 2 20.092578200202553 29.23881877117971 5.282552107183085 0 0 0
1687 1 24.9421235337572 24.930854257171056 3.9749069141600826 0 0 0
1827 3 25.87830622627876 25.873340686618306 3.482971162074605 0 0 0
1860 3 26.229049323241416 25.26233878836966 5.709027994440869 0 0 0
1677 1 25.16064704591998 24.492264621966466 5.27824114888881 0 0 0
1719 1 26.556178785183658 26.12761009616791 4.695326942369964 0 0 0
1815 2 24.493920004439847 23.838253921173038 5.793829557988097 0 0 0
1735 2 27.098891921086334 27.092766066195182 4.724105359784204 0 0 0
1829 3 29.34615183099607 26.117611057386313 7.495599905488645 0 0 0
1655 1 30.581295655337545 25.652902827614046 7.030247629794857 0 0 0
1656 1 0.2862951596703262 26.731308957435548 6.595590604359446 1 0 0
1737 2 30.533886282698212 24.477459061013796 7.011755610002782 0 0 0
592 1 2.6917864089086545 27.002502596220346 3.869732115696473 0 0 0
639 1 2.384413613779386 28.999895830983284 4.4766128102947 0 0 0
746 3 3.0978369915587547 27.91869741569041 4.715276859580643 0 0 0
593 1 1.521130710999794 28.94228767111248 3.377237592579462 0 0 0
675 2 2.5909246035824918 29.881523465046293 5.10491382083586 0 0 0
744 3 8.540307948728872 30.487836020432745 5.050970395254181 0 0 0
569 1 8.141222886517431 29.95258641426374 6.260754138176191 0 0 0
802 4 8.420753482001114 29.647239854788864 3.0391818342841557 0 0 0
566 1 11.321063919337599 29.523780713972805 3.185347306963532 0 0 0
656 2 7.903652923358464 28.917445511540624 6.208434525234697 0 0 0
646 2 11.456233796293462 29.568419443717588 4.1884541706329586 0 0 0
742 3 12.514073464460044 29.080551723553384 2.4815313912408543 0 0 0
1903 4 13.570503430562576 28.155225800289323 3.4658513333532346 0 0 0
1818 2 14.44908190739948 30.706586008736803 5.254712827161521 0 0 0
1858 3 14.835513837528229 28.50178008370854 5.0344348584872805 0 0 0
1681 1 15.227513922021647 29.92883189653458 5.067173076432079 0 0 0
1680 1 15.92506276826283 27.796688225811213 5.206861070018316 0 0 0
1834 3 17.07075755909271 28.6570404011147 5.473001808213174 0 0 0
1727 1 16.642603126635425 29.88283510972348 5.101545197469299 0 0 0
1763 2 17.350123733259373 30.728490230400073 4.983902255055264 0 0 0
1888 3 22.311057095393192 27.589789139591527 3.1656519111734593 0 0 0
1684 1 22.134846376789998 28.300998692259707 4.373508832764644 0 0 0
1686 1 20.825089808963472 28.737875551816447 4.462670491514662 0 0 0
1776 2 22.94686437014144 28.481808414655415 5.010988721131103 0 0 0
1244 2 25.360045945005798 -0.004051694049302057 5.606306673470961 0 0 0
1144 1 24.68148614815993 0.6201829788011621 7.317329576681287 0 0 0
1239 2 23.86239988829134 0.03673832268226607 7.511346646964132 0 0 0
1832 3 29.542675077128262 0.016018015318660025 4.438907671755831 0 1 0
1734 2 28.278394740488093 28.03300961628148 7.376476217626317 0 0 0
1654 1 29.174641525361242 27.406394126883317 7.362415251391537 0 0 0
815 4 30.047421254444313 29.088937189859994 5.170903797332608 -1 0 0
1830 3 30.38252880528903 27.86138609316201 6.901681351947048 0 0 0
179 2 4.874183652613159 2.2055227289977566 7.891943540766914 0 0 0
239 3 5.9881962346913555 3.8912327497702157 7.044785015686191 0 0 0
167 2 9.491793401273688 2.6706550845106305 9.938073811248417 0 0 0
89 1 8.586732142442258 2.8384319831748996 10.354570275937506 0 0 0
267 4 7.882158588449311 2.9533870590925484 7.513494990623721 0 0 0
134 2 11.511761647726996 0.6988806168774758 10.045632436255165 0 0 0
65 1 12.515659745911382 0.6114505357116691 12.14463312888223 0 0 0
64 1 11.955674995319384 1.1568588097761214 10.868267098329785 0 0 0
231 3 12.060278868496185 2.58931437437481 10.871696357824455 0 0 0
1246 2 15.290175770141206 2.601539006414226 11.44401975681829 0 0 0
265 4 17.498865313228702 1.9843265083164252 9.657770540528436 0 0 0
1757 2 15.437302131579317 30.758735280300687 7.323974141559412 0 0 0
1833 3 16.882773616152498 30.842742469823122 9.016516035913686 0 0 0
1145 1 20.97705816981831 1.1054379447866276 7.840227552209462 0 0 0
1106 1 19.596628783253117 1.6007172197430264 7.8250092872636925 0 0 0
1338 3 21.4899137638003 1.750388086385211 8.862918949823323 0 0 0
1339 3 19.334796823620863 2.2847249383113954 9.04695297715304 0 0 0